M 0.00000 0 (550.00, 671.00, 0.00), (127.42, 34.45), 10.00
s 0.086530504 _4_ RTR  --- 0 message 32 [0 0 0 0] ------- [4:255 -1:255 32 0] 
s 0.086805504 _4_ MAC  --- 0 message 90 [0 ffffffff 4 800] ------- [4:255 -1:255 32 0] 
r 0.087526209 _2_ MAC  --- 0 message 32 [0 ffffffff 4 800] ------- [4:255 -1:255 32 0] 
r 0.087551209 _2_ RTR  --- 0 message 32 [0 ffffffff 4 800] ------- [4:255 -1:255 32 0] 
s 0.231703354 _6_ RTR  --- 1 message 32 [0 0 0 0] ------- [6:255 -1:255 32 0] 
s 0.232218354 _6_ MAC  --- 1 message 90 [0 ffffffff 6 800] ------- [6:255 -1:255 32 0] 
r 0.232938460 _1_ MAC  --- 1 message 32 [0 ffffffff 6 800] ------- [6:255 -1:255 32 0] 
r 0.232938489 _3_ MAC  --- 1 message 32 [0 ffffffff 6 800] ------- [6:255 -1:255 32 0] 
r 0.232938640 _7_ MAC  --- 1 message 32 [0 ffffffff 6 800] ------- [6:255 -1:255 32 0] 
r 0.232938884 _9_ MAC  --- 1 message 32 [0 ffffffff 6 800] ------- [6:255 -1:255 32 0] 
r 0.232963460 _1_ RTR  --- 1 message 32 [0 ffffffff 6 800] ------- [6:255 -1:255 32 0] 
r 0.232963489 _3_ RTR  --- 1 message 32 [0 ffffffff 6 800] ------- [6:255 -1:255 32 0] 
r 0.232963640 _7_ RTR  --- 1 message 32 [0 ffffffff 6 800] ------- [6:255 -1:255 32 0] 
r 0.232963884 _9_ RTR  --- 1 message 32 [0 ffffffff 6 800] ------- [6:255 -1:255 32 0] 
s 0.336911486 _3_ RTR  --- 2 message 32 [0 0 0 0] ------- [3:255 -1:255 32 0] 
s 0.337526486 _3_ MAC  --- 2 message 90 [0 ffffffff 3 800] ------- [3:255 -1:255 32 0] 
r 0.338246621 _6_ MAC  --- 2 message 32 [0 ffffffff 3 800] ------- [3:255 -1:255 32 0] 
r 0.338246649 _1_ MAC  --- 2 message 32 [0 ffffffff 3 800] ------- [3:255 -1:255 32 0] 
r 0.338246717 _7_ MAC  --- 2 message 32 [0 ffffffff 3 800] ------- [3:255 -1:255 32 0] 
r 0.338246920 _9_ MAC  --- 2 message 32 [0 ffffffff 3 800] ------- [3:255 -1:255 32 0] 
r 0.338271621 _6_ RTR  --- 2 message 32 [0 ffffffff 3 800] ------- [3:255 -1:255 32 0] 
r 0.338271649 _1_ RTR  --- 2 message 32 [0 ffffffff 3 800] ------- [3:255 -1:255 32 0] 
r 0.338271717 _7_ RTR  --- 2 message 32 [0 ffffffff 3 800] ------- [3:255 -1:255 32 0] 
r 0.338271920 _9_ RTR  --- 2 message 32 [0 ffffffff 3 800] ------- [3:255 -1:255 32 0] 
s 0.358121573 _9_ RTR  --- 3 message 32 [0 0 0 0] ------- [9:255 -1:255 32 0] 
s 0.358556573 _9_ MAC  --- 3 message 90 [0 ffffffff 9 800] ------- [9:255 -1:255 32 0] 
r 0.359276834 _7_ MAC  --- 3 message 32 [0 ffffffff 9 800] ------- [9:255 -1:255 32 0] 
r 0.359277007 _3_ MAC  --- 3 message 32 [0 ffffffff 9 800] ------- [9:255 -1:255 32 0] 
r 0.359277034 _1_ MAC  --- 3 message 32 [0 ffffffff 9 800] ------- [9:255 -1:255 32 0] 
r 0.359277103 _6_ MAC  --- 3 message 32 [0 ffffffff 9 800] ------- [9:255 -1:255 32 0] 
r 0.359301834 _7_ RTR  --- 3 message 32 [0 ffffffff 9 800] ------- [9:255 -1:255 32 0] 
r 0.359302007 _3_ RTR  --- 3 message 32 [0 ffffffff 9 800] ------- [9:255 -1:255 32 0] 
r 0.359302034 _1_ RTR  --- 3 message 32 [0 ffffffff 9 800] ------- [9:255 -1:255 32 0] 
r 0.359302103 _6_ RTR  --- 3 message 32 [0 ffffffff 9 800] ------- [9:255 -1:255 32 0] 
s 0.622213306 _1_ RTR  --- 4 message 32 [0 0 0 0] ------- [1:255 -1:255 32 0] 
s 0.622488306 _1_ MAC  --- 4 message 90 [0 ffffffff 1 800] ------- [1:255 -1:255 32 0] 
r 0.623208413 _6_ MAC  --- 4 message 32 [0 ffffffff 1 800] ------- [1:255 -1:255 32 0] 
r 0.623208470 _3_ MAC  --- 4 message 32 [0 ffffffff 1 800] ------- [1:255 -1:255 32 0] 
r 0.623208510 _7_ MAC  --- 4 message 32 [0 ffffffff 1 800] ------- [1:255 -1:255 32 0] 
r 0.623208767 _9_ MAC  --- 4 message 32 [0 ffffffff 1 800] ------- [1:255 -1:255 32 0] 
r 0.623233413 _6_ RTR  --- 4 message 32 [0 ffffffff 1 800] ------- [1:255 -1:255 32 0] 
r 0.623233470 _3_ RTR  --- 4 message 32 [0 ffffffff 1 800] ------- [1:255 -1:255 32 0] 
r 0.623233510 _7_ RTR  --- 4 message 32 [0 ffffffff 1 800] ------- [1:255 -1:255 32 0] 
r 0.623233767 _9_ RTR  --- 4 message 32 [0 ffffffff 1 800] ------- [1:255 -1:255 32 0] 
s 0.856187908 _8_ RTR  --- 5 message 32 [0 0 0 0] ------- [8:255 -1:255 32 0] 
s 0.856462908 _8_ MAC  --- 5 message 90 [0 ffffffff 8 800] ------- [8:255 -1:255 32 0] 
r 0.857183548 _0_ MAC  --- 5 message 32 [0 ffffffff 8 800] ------- [8:255 -1:255 32 0] 
r 0.857208548 _0_ RTR  --- 5 message 32 [0 ffffffff 8 800] ------- [8:255 -1:255 32 0] 
s 1.278314313 _0_ RTR  --- 6 message 32 [0 0 0 0] ------- [0:255 -1:255 32 0] 
s 1.278729313 _0_ MAC  --- 6 message 90 [0 ffffffff 0 800] ------- [0:255 -1:255 32 0] 
r 1.279449946 _8_ MAC  --- 6 message 32 [0 ffffffff 0 800] ------- [0:255 -1:255 32 0] 
r 1.279450009 _5_ MAC  --- 6 message 32 [0 ffffffff 0 800] ------- [0:255 -1:255 32 0] 
r 1.279474946 _8_ RTR  --- 6 message 32 [0 ffffffff 0 800] ------- [0:255 -1:255 32 0] 
r 1.279475009 _5_ RTR  --- 6 message 32 [0 ffffffff 0 800] ------- [0:255 -1:255 32 0] 
s 1.281366353 _5_ RTR  --- 7 message 32 [0 0 0 0] ------- [5:255 -1:255 32 0] 
s 1.281721353 _5_ MAC  --- 7 message 90 [0 ffffffff 5 800] ------- [5:255 -1:255 32 0] 
r 1.282442049 _0_ MAC  --- 7 message 32 [0 ffffffff 5 800] ------- [5:255 -1:255 32 0] 
r 1.282467049 _0_ RTR  --- 7 message 32 [0 ffffffff 5 800] ------- [5:255 -1:255 32 0] 
s 1.678095294 _2_ RTR  --- 8 message 32 [0 0 0 0] ------- [2:255 -1:255 32 0] 
s 1.678490294 _2_ MAC  --- 8 message 90 [0 ffffffff 2 800] ------- [2:255 -1:255 32 0] 
r 1.679210999 _4_ MAC  --- 8 message 32 [0 ffffffff 2 800] ------- [2:255 -1:255 32 0] 
r 1.679235999 _4_ RTR  --- 8 message 32 [0 ffffffff 2 800] ------- [2:255 -1:255 32 0] 
s 1.723712268 _7_ RTR  --- 9 message 32 [0 0 0 0] ------- [7:255 -1:255 32 0] 
s 1.724087268 _7_ MAC  --- 9 message 90 [0 ffffffff 7 800] ------- [7:255 -1:255 32 0] 
r 1.724807471 _1_ MAC  --- 9 message 32 [0 ffffffff 7 800] ------- [7:255 -1:255 32 0] 
r 1.724807499 _3_ MAC  --- 9 message 32 [0 ffffffff 7 800] ------- [7:255 -1:255 32 0] 
r 1.724807528 _9_ MAC  --- 9 message 32 [0 ffffffff 7 800] ------- [7:255 -1:255 32 0] 
r 1.724807554 _6_ MAC  --- 9 message 32 [0 ffffffff 7 800] ------- [7:255 -1:255 32 0] 
r 1.724832471 _1_ RTR  --- 9 message 32 [0 ffffffff 7 800] ------- [7:255 -1:255 32 0] 
r 1.724832499 _3_ RTR  --- 9 message 32 [0 ffffffff 7 800] ------- [7:255 -1:255 32 0] 
r 1.724832528 _9_ RTR  --- 9 message 32 [0 ffffffff 7 800] ------- [7:255 -1:255 32 0] 
r 1.724832554 _6_ RTR  --- 9 message 32 [0 ffffffff 7 800] ------- [7:255 -1:255 32 0] 
s 12.095401080 _2_ RTR  --- 10 message 32 [0 0 0 0] ------- [2:255 -1:255 32 0] 
s 12.095776080 _2_ MAC  --- 10 message 90 [0 ffffffff 2 800] ------- [2:255 -1:255 32 0] 
r 12.096496785 _4_ MAC  --- 10 message 32 [0 ffffffff 2 800] ------- [2:255 -1:255 32 0] 
r 12.096521785 _4_ RTR  --- 10 message 32 [0 ffffffff 2 800] ------- [2:255 -1:255 32 0] 
s 12.234750919 _7_ RTR  --- 13 message 32 [0 0 0 0] ------- [7:255 -1:255 32 0] 
s 12.235030800 _1_ RTR  --- 11 message 32 [0 0 0 0] ------- [1:255 -1:255 32 0] 
s 12.235125919 _7_ MAC  --- 13 message 90 [0 ffffffff 7 800] ------- [7:255 -1:255 32 0] 
r 12.235846122 _1_ MAC  --- 13 message 32 [0 ffffffff 7 800] ------- [7:255 -1:255 32 0] 
r 12.235846150 _3_ MAC  --- 13 message 32 [0 ffffffff 7 800] ------- [7:255 -1:255 32 0] 
r 12.235846179 _9_ MAC  --- 13 message 32 [0 ffffffff 7 800] ------- [7:255 -1:255 32 0] 
r 12.235846205 _6_ MAC  --- 13 message 32 [0 ffffffff 7 800] ------- [7:255 -1:255 32 0] 
r 12.235871122 _1_ RTR  --- 13 message 32 [0 ffffffff 7 800] ------- [7:255 -1:255 32 0] 
r 12.235871150 _3_ RTR  --- 13 message 32 [0 ffffffff 7 800] ------- [7:255 -1:255 32 0] 
r 12.235871179 _9_ RTR  --- 13 message 32 [0 ffffffff 7 800] ------- [7:255 -1:255 32 0] 
r 12.235871205 _6_ RTR  --- 13 message 32 [0 ffffffff 7 800] ------- [7:255 -1:255 32 0] 
s 12.235916122 _1_ MAC  --- 11 message 90 [0 ffffffff 1 800] ------- [1:255 -1:255 32 0] 
r 12.236636228 _6_ MAC  --- 11 message 32 [0 ffffffff 1 800] ------- [1:255 -1:255 32 0] 
r 12.236636285 _3_ MAC  --- 11 message 32 [0 ffffffff 1 800] ------- [1:255 -1:255 32 0] 
r 12.236636325 _7_ MAC  --- 11 message 32 [0 ffffffff 1 800] ------- [1:255 -1:255 32 0] 
r 12.236636583 _9_ MAC  --- 11 message 32 [0 ffffffff 1 800] ------- [1:255 -1:255 32 0] 
r 12.236661228 _6_ RTR  --- 11 message 32 [0 ffffffff 1 800] ------- [1:255 -1:255 32 0] 
r 12.236661285 _3_ RTR  --- 11 message 32 [0 ffffffff 1 800] ------- [1:255 -1:255 32 0] 
r 12.236661325 _7_ RTR  --- 11 message 32 [0 ffffffff 1 800] ------- [1:255 -1:255 32 0] 
r 12.236661583 _9_ RTR  --- 11 message 32 [0 ffffffff 1 800] ------- [1:255 -1:255 32 0] 
s 12.239912862 _3_ RTR  --- 12 message 32 [0 0 0 0] ------- [3:255 -1:255 32 0] 
s 12.240187862 _3_ MAC  --- 12 message 90 [0 ffffffff 3 800] ------- [3:255 -1:255 32 0] 
r 12.240907997 _6_ MAC  --- 12 message 32 [0 ffffffff 3 800] ------- [3:255 -1:255 32 0] 
r 12.240908025 _1_ MAC  --- 12 message 32 [0 ffffffff 3 800] ------- [3:255 -1:255 32 0] 
r 12.240908093 _7_ MAC  --- 12 message 32 [0 ffffffff 3 800] ------- [3:255 -1:255 32 0] 
r 12.240908296 _9_ MAC  --- 12 message 32 [0 ffffffff 3 800] ------- [3:255 -1:255 32 0] 
r 12.240932997 _6_ RTR  --- 12 message 32 [0 ffffffff 3 800] ------- [3:255 -1:255 32 0] 
r 12.240933025 _1_ RTR  --- 12 message 32 [0 ffffffff 3 800] ------- [3:255 -1:255 32 0] 
r 12.240933093 _7_ RTR  --- 12 message 32 [0 ffffffff 3 800] ------- [3:255 -1:255 32 0] 
r 12.240933296 _9_ RTR  --- 12 message 32 [0 ffffffff 3 800] ------- [3:255 -1:255 32 0] 
s 12.242723951 _9_ RTR  --- 14 message 32 [0 0 0 0] ------- [9:255 -1:255 32 0] 
s 12.242878951 _9_ MAC  --- 14 message 90 [0 ffffffff 9 800] ------- [9:255 -1:255 32 0] 
r 12.243599211 _7_ MAC  --- 14 message 32 [0 ffffffff 9 800] ------- [9:255 -1:255 32 0] 
r 12.243599385 _3_ MAC  --- 14 message 32 [0 ffffffff 9 800] ------- [9:255 -1:255 32 0] 
r 12.243599412 _1_ MAC  --- 14 message 32 [0 ffffffff 9 800] ------- [9:255 -1:255 32 0] 
r 12.243599481 _6_ MAC  --- 14 message 32 [0 ffffffff 9 800] ------- [9:255 -1:255 32 0] 
r 12.243624211 _7_ RTR  --- 14 message 32 [0 ffffffff 9 800] ------- [9:255 -1:255 32 0] 
r 12.243624385 _3_ RTR  --- 14 message 32 [0 ffffffff 9 800] ------- [9:255 -1:255 32 0] 
r 12.243624412 _1_ RTR  --- 14 message 32 [0 ffffffff 9 800] ------- [9:255 -1:255 32 0] 
r 12.243624481 _6_ RTR  --- 14 message 32 [0 ffffffff 9 800] ------- [9:255 -1:255 32 0] 
s 12.285796387 _1_ RTR  --- 15 message 44 [0 0 0 0] ------- [1:255 -1:255 32 0] 
s 12.286211387 _1_ MAC  --- 15 message 102 [0 ffffffff 1 800] ------- [1:255 -1:255 32 0] 
r 12.287027493 _6_ MAC  --- 15 message 44 [0 ffffffff 1 800] ------- [1:255 -1:255 32 0] 
r 12.287027550 _3_ MAC  --- 15 message 44 [0 ffffffff 1 800] ------- [1:255 -1:255 32 0] 
r 12.287027590 _7_ MAC  --- 15 message 44 [0 ffffffff 1 800] ------- [1:255 -1:255 32 0] 
r 12.287027848 _9_ MAC  --- 15 message 44 [0 ffffffff 1 800] ------- [1:255 -1:255 32 0] 
r 12.287052493 _6_ RTR  --- 15 message 44 [0 ffffffff 1 800] ------- [1:255 -1:255 32 0] 
r 12.287052550 _3_ RTR  --- 15 message 44 [0 ffffffff 1 800] ------- [1:255 -1:255 32 0] 
r 12.287052590 _7_ RTR  --- 15 message 44 [0 ffffffff 1 800] ------- [1:255 -1:255 32 0] 
r 12.287052848 _9_ RTR  --- 15 message 44 [0 ffffffff 1 800] ------- [1:255 -1:255 32 0] 
s 12.344132746 _6_ RTR  --- 16 message 32 [0 0 0 0] ------- [6:255 -1:255 32 0] 
s 12.344267746 _6_ MAC  --- 16 message 90 [0 ffffffff 6 800] ------- [6:255 -1:255 32 0] 
r 12.344987852 _1_ MAC  --- 16 message 32 [0 ffffffff 6 800] ------- [6:255 -1:255 32 0] 
r 12.344987882 _3_ MAC  --- 16 message 32 [0 ffffffff 6 800] ------- [6:255 -1:255 32 0] 
r 12.344988032 _7_ MAC  --- 16 message 32 [0 ffffffff 6 800] ------- [6:255 -1:255 32 0] 
r 12.344988276 _9_ MAC  --- 16 message 32 [0 ffffffff 6 800] ------- [6:255 -1:255 32 0] 
r 12.345012852 _1_ RTR  --- 16 message 32 [0 ffffffff 6 800] ------- [6:255 -1:255 32 0] 
r 12.345012882 _3_ RTR  --- 16 message 32 [0 ffffffff 6 800] ------- [6:255 -1:255 32 0] 
r 12.345013032 _7_ RTR  --- 16 message 32 [0 ffffffff 6 800] ------- [6:255 -1:255 32 0] 
r 12.345013276 _9_ RTR  --- 16 message 32 [0 ffffffff 6 800] ------- [6:255 -1:255 32 0] 
s 12.571822141 _0_ RTR  --- 17 message 32 [0 0 0 0] ------- [0:255 -1:255 32 0] 
s 12.572337141 _0_ MAC  --- 17 message 90 [0 ffffffff 0 800] ------- [0:255 -1:255 32 0] 
r 12.573057708 _8_ MAC  --- 17 message 32 [0 ffffffff 0 800] ------- [0:255 -1:255 32 0] 
r 12.573057838 _4_ MAC  --- 17 message 32 [0 ffffffff 0 800] ------- [0:255 -1:255 32 0] 
r 12.573057959 _5_ MAC  --- 17 message 32 [0 ffffffff 0 800] ------- [0:255 -1:255 32 0] 
r 12.573082708 _8_ RTR  --- 17 message 32 [0 ffffffff 0 800] ------- [0:255 -1:255 32 0] 
r 12.573082838 _4_ RTR  --- 17 message 32 [0 ffffffff 0 800] ------- [0:255 -1:255 32 0] 
r 12.573082959 _5_ RTR  --- 17 message 32 [0 ffffffff 0 800] ------- [0:255 -1:255 32 0] 
s 13.079431175 _7_ RTR  --- 18 message 68 [0 0 0 0] ------- [7:255 -1:255 32 0] 
s 13.079806175 _7_ MAC  --- 18 message 126 [0 ffffffff 7 800] ------- [7:255 -1:255 32 0] 
r 13.080814379 _1_ MAC  --- 18 message 68 [0 ffffffff 7 800] ------- [7:255 -1:255 32 0] 
r 13.080814407 _3_ MAC  --- 18 message 68 [0 ffffffff 7 800] ------- [7:255 -1:255 32 0] 
r 13.080814436 _9_ MAC  --- 18 message 68 [0 ffffffff 7 800] ------- [7:255 -1:255 32 0] 
r 13.080814462 _6_ MAC  --- 18 message 68 [0 ffffffff 7 800] ------- [7:255 -1:255 32 0] 
r 13.080839379 _1_ RTR  --- 18 message 68 [0 ffffffff 7 800] ------- [7:255 -1:255 32 0] 
r 13.080839407 _3_ RTR  --- 18 message 68 [0 ffffffff 7 800] ------- [7:255 -1:255 32 0] 
r 13.080839436 _9_ RTR  --- 18 message 68 [0 ffffffff 7 800] ------- [7:255 -1:255 32 0] 
r 13.080839462 _6_ RTR  --- 18 message 68 [0 ffffffff 7 800] ------- [7:255 -1:255 32 0] 
s 13.232965629 _9_ RTR  --- 20 message 44 [0 0 0 0] ------- [9:255 -1:255 32 0] 
s 13.233260629 _9_ MAC  --- 20 message 102 [0 ffffffff 9 800] ------- [9:255 -1:255 32 0] 
r 13.234076890 _7_ MAC  --- 20 message 44 [0 ffffffff 9 800] ------- [9:255 -1:255 32 0] 
r 13.234077064 _3_ MAC  --- 20 message 44 [0 ffffffff 9 800] ------- [9:255 -1:255 32 0] 
r 13.234077091 _1_ MAC  --- 20 message 44 [0 ffffffff 9 800] ------- [9:255 -1:255 32 0] 
r 13.234077160 _6_ MAC  --- 20 message 44 [0 ffffffff 9 800] ------- [9:255 -1:255 32 0] 
r 13.234101890 _7_ RTR  --- 20 message 44 [0 ffffffff 9 800] ------- [9:255 -1:255 32 0] 
r 13.234102064 _3_ RTR  --- 20 message 44 [0 ffffffff 9 800] ------- [9:255 -1:255 32 0] 
r 13.234102091 _1_ RTR  --- 20 message 44 [0 ffffffff 9 800] ------- [9:255 -1:255 32 0] 
r 13.234102160 _6_ RTR  --- 20 message 44 [0 ffffffff 9 800] ------- [9:255 -1:255 32 0] 
s 13.236699528 _3_ RTR  --- 19 message 44 [0 0 0 0] ------- [3:255 -1:255 32 0] 
s 13.236934528 _3_ MAC  --- 19 message 102 [0 ffffffff 3 800] ------- [3:255 -1:255 32 0] 
r 13.237750663 _6_ MAC  --- 19 message 44 [0 ffffffff 3 800] ------- [3:255 -1:255 32 0] 
r 13.237750691 _1_ MAC  --- 19 message 44 [0 ffffffff 3 800] ------- [3:255 -1:255 32 0] 
r 13.237750759 _7_ MAC  --- 19 message 44 [0 ffffffff 3 800] ------- [3:255 -1:255 32 0] 
r 13.237750962 _9_ MAC  --- 19 message 44 [0 ffffffff 3 800] ------- [3:255 -1:255 32 0] 
r 13.237775663 _6_ RTR  --- 19 message 44 [0 ffffffff 3 800] ------- [3:255 -1:255 32 0] 
r 13.237775691 _1_ RTR  --- 19 message 44 [0 ffffffff 3 800] ------- [3:255 -1:255 32 0] 
r 13.237775759 _7_ RTR  --- 19 message 44 [0 ffffffff 3 800] ------- [3:255 -1:255 32 0] 
r 13.237775962 _9_ RTR  --- 19 message 44 [0 ffffffff 3 800] ------- [3:255 -1:255 32 0] 
s 13.277980309 _1_ RTR  --- 21 message 44 [0 0 0 0] ------- [1:255 -1:255 32 0] 
s 13.278175309 _1_ MAC  --- 21 message 102 [0 ffffffff 1 800] ------- [1:255 -1:255 32 0] 
r 13.278991415 _6_ MAC  --- 21 message 44 [0 ffffffff 1 800] ------- [1:255 -1:255 32 0] 
r 13.278991472 _3_ MAC  --- 21 message 44 [0 ffffffff 1 800] ------- [1:255 -1:255 32 0] 
r 13.278991512 _7_ MAC  --- 21 message 44 [0 ffffffff 1 800] ------- [1:255 -1:255 32 0] 
r 13.278991770 _9_ MAC  --- 21 message 44 [0 ffffffff 1 800] ------- [1:255 -1:255 32 0] 
r 13.279016415 _6_ RTR  --- 21 message 44 [0 ffffffff 1 800] ------- [1:255 -1:255 32 0] 
r 13.279016472 _3_ RTR  --- 21 message 44 [0 ffffffff 1 800] ------- [1:255 -1:255 32 0] 
r 13.279016512 _7_ RTR  --- 21 message 44 [0 ffffffff 1 800] ------- [1:255 -1:255 32 0] 
r 13.279016770 _9_ RTR  --- 21 message 44 [0 ffffffff 1 800] ------- [1:255 -1:255 32 0] 
s 13.338305124 _6_ RTR  --- 24 message 44 [0 0 0 0] ------- [6:255 -1:255 32 0] 
s 13.338380124 _6_ MAC  --- 24 message 102 [0 ffffffff 6 800] ------- [6:255 -1:255 32 0] 
r 13.339196230 _1_ MAC  --- 24 message 44 [0 ffffffff 6 800] ------- [6:255 -1:255 32 0] 
r 13.339196259 _3_ MAC  --- 24 message 44 [0 ffffffff 6 800] ------- [6:255 -1:255 32 0] 
r 13.339196410 _7_ MAC  --- 24 message 44 [0 ffffffff 6 800] ------- [6:255 -1:255 32 0] 
r 13.339196654 _9_ MAC  --- 24 message 44 [0 ffffffff 6 800] ------- [6:255 -1:255 32 0] 
r 13.339221230 _1_ RTR  --- 24 message 44 [0 ffffffff 6 800] ------- [6:255 -1:255 32 0] 
r 13.339221259 _3_ RTR  --- 24 message 44 [0 ffffffff 6 800] ------- [6:255 -1:255 32 0] 
r 13.339221410 _7_ RTR  --- 24 message 44 [0 ffffffff 6 800] ------- [6:255 -1:255 32 0] 
r 13.339221654 _9_ RTR  --- 24 message 44 [0 ffffffff 6 800] ------- [6:255 -1:255 32 0] 
s 13.431349434 _6_ RTR  --- 25 message 56 [0 0 0 0] ------- [6:255 -1:255 32 0] 
s 13.431844434 _6_ MAC  --- 25 message 114 [0 ffffffff 6 800] ------- [6:255 -1:255 32 0] 
r 13.432756540 _1_ MAC  --- 25 message 56 [0 ffffffff 6 800] ------- [6:255 -1:255 32 0] 
r 13.432756569 _3_ MAC  --- 25 message 56 [0 ffffffff 6 800] ------- [6:255 -1:255 32 0] 
r 13.432756720 _7_ MAC  --- 25 message 56 [0 ffffffff 6 800] ------- [6:255 -1:255 32 0] 
r 13.432756964 _9_ MAC  --- 25 message 56 [0 ffffffff 6 800] ------- [6:255 -1:255 32 0] 
r 13.432781540 _1_ RTR  --- 25 message 56 [0 ffffffff 6 800] ------- [6:255 -1:255 32 0] 
r 13.432781569 _3_ RTR  --- 25 message 56 [0 ffffffff 6 800] ------- [6:255 -1:255 32 0] 
r 13.432781720 _7_ RTR  --- 25 message 56 [0 ffffffff 6 800] ------- [6:255 -1:255 32 0] 
r 13.432781964 _9_ RTR  --- 25 message 56 [0 ffffffff 6 800] ------- [6:255 -1:255 32 0] 
s 13.575813910 _0_ RTR  --- 26 message 44 [0 0 0 0] ------- [0:255 -1:255 32 0] 
s 13.576048910 _0_ MAC  --- 26 message 102 [0 ffffffff 0 800] ------- [0:255 -1:255 32 0] 
r 13.576865482 _8_ MAC  --- 26 message 44 [0 ffffffff 0 800] ------- [0:255 -1:255 32 0] 
r 13.576865587 _4_ MAC  --- 26 message 44 [0 ffffffff 0 800] ------- [0:255 -1:255 32 0] 
r 13.576890482 _8_ RTR  --- 26 message 44 [0 ffffffff 0 800] ------- [0:255 -1:255 32 0] 
r 13.576890587 _4_ RTR  --- 26 message 44 [0 ffffffff 0 800] ------- [0:255 -1:255 32 0] 
s 13.684443467 _4_ RTR  --- 27 message 32 [0 0 0 0] ------- [4:255 -1:255 32 0] 
s 13.684618467 _4_ MAC  --- 27 message 90 [0 ffffffff 4 800] ------- [4:255 -1:255 32 0] 
r 13.685339142 _0_ MAC  --- 27 message 32 [0 ffffffff 4 800] ------- [4:255 -1:255 32 0] 
r 13.685339173 _2_ MAC  --- 27 message 32 [0 ffffffff 4 800] ------- [4:255 -1:255 32 0] 
r 13.685364142 _0_ RTR  --- 27 message 32 [0 ffffffff 4 800] ------- [4:255 -1:255 32 0] 
r 13.685364173 _2_ RTR  --- 27 message 32 [0 ffffffff 4 800] ------- [4:255 -1:255 32 0] 
s 14.139829016 _9_ RTR  --- 29 message 44 [0 0 0 0] ------- [9:255 -1:255 32 0] 
s 14.140504016 _9_ MAC  --- 29 message 102 [0 ffffffff 9 800] ------- [9:255 -1:255 32 0] 
r 14.141320277 _7_ MAC  --- 29 message 44 [0 ffffffff 9 800] ------- [9:255 -1:255 32 0] 
r 14.141320451 _3_ MAC  --- 29 message 44 [0 ffffffff 9 800] ------- [9:255 -1:255 32 0] 
r 14.141320477 _1_ MAC  --- 29 message 44 [0 ffffffff 9 800] ------- [9:255 -1:255 32 0] 
r 14.141320546 _6_ MAC  --- 29 message 44 [0 ffffffff 9 800] ------- [9:255 -1:255 32 0] 
r 14.141345277 _7_ RTR  --- 29 message 44 [0 ffffffff 9 800] ------- [9:255 -1:255 32 0] 
r 14.141345451 _3_ RTR  --- 29 message 44 [0 ffffffff 9 800] ------- [9:255 -1:255 32 0] 
r 14.141345477 _1_ RTR  --- 29 message 44 [0 ffffffff 9 800] ------- [9:255 -1:255 32 0] 
r 14.141345546 _6_ RTR  --- 29 message 44 [0 ffffffff 9 800] ------- [9:255 -1:255 32 0] 
s 14.278844157 _1_ RTR  --- 31 message 32 [0 0 0 0] ------- [1:255 -1:255 32 0] 
s 14.278939157 _1_ MAC  --- 31 message 90 [0 ffffffff 1 800] ------- [1:255 -1:255 32 0] 
r 14.279659263 _6_ MAC  --- 31 message 32 [0 ffffffff 1 800] ------- [1:255 -1:255 32 0] 
r 14.279659320 _3_ MAC  --- 31 message 32 [0 ffffffff 1 800] ------- [1:255 -1:255 32 0] 
r 14.279659360 _7_ MAC  --- 31 message 32 [0 ffffffff 1 800] ------- [1:255 -1:255 32 0] 
r 14.279659618 _9_ MAC  --- 31 message 32 [0 ffffffff 1 800] ------- [1:255 -1:255 32 0] 
r 14.279684263 _6_ RTR  --- 31 message 32 [0 ffffffff 1 800] ------- [1:255 -1:255 32 0] 
r 14.279684320 _3_ RTR  --- 31 message 32 [0 ffffffff 1 800] ------- [1:255 -1:255 32 0] 
r 14.279684360 _7_ RTR  --- 31 message 32 [0 ffffffff 1 800] ------- [1:255 -1:255 32 0] 
r 14.279684618 _9_ RTR  --- 31 message 32 [0 ffffffff 1 800] ------- [1:255 -1:255 32 0] 
s 14.366250240 _4_ RTR  --- 32 message 44 [0 0 0 0] ------- [4:255 -1:255 32 0] 
s 14.366345240 _4_ MAC  --- 32 message 102 [0 ffffffff 4 800] ------- [4:255 -1:255 32 0] 
r 14.367161902 _0_ MAC  --- 32 message 44 [0 ffffffff 4 800] ------- [4:255 -1:255 32 0] 
r 14.367161945 _2_ MAC  --- 32 message 44 [0 ffffffff 4 800] ------- [4:255 -1:255 32 0] 
r 14.367186902 _0_ RTR  --- 32 message 44 [0 ffffffff 4 800] ------- [4:255 -1:255 32 0] 
r 14.367186945 _2_ RTR  --- 32 message 44 [0 ffffffff 4 800] ------- [4:255 -1:255 32 0] 
s 14.732483065 _3_ RTR  --- 34 message 32 [0 0 0 0] ------- [3:255 -1:255 32 0] 
s 14.733038065 _3_ MAC  --- 34 message 90 [0 ffffffff 3 800] ------- [3:255 -1:255 32 0] 
r 14.733758200 _6_ MAC  --- 34 message 32 [0 ffffffff 3 800] ------- [3:255 -1:255 32 0] 
r 14.733758228 _1_ MAC  --- 34 message 32 [0 ffffffff 3 800] ------- [3:255 -1:255 32 0] 
r 14.733758296 _7_ MAC  --- 34 message 32 [0 ffffffff 3 800] ------- [3:255 -1:255 32 0] 
r 14.733758499 _9_ MAC  --- 34 message 32 [0 ffffffff 3 800] ------- [3:255 -1:255 32 0] 
r 14.733783200 _6_ RTR  --- 34 message 32 [0 ffffffff 3 800] ------- [3:255 -1:255 32 0] 
r 14.733783228 _1_ RTR  --- 34 message 32 [0 ffffffff 3 800] ------- [3:255 -1:255 32 0] 
r 14.733783296 _7_ RTR  --- 34 message 32 [0 ffffffff 3 800] ------- [3:255 -1:255 32 0] 
r 14.733783499 _9_ RTR  --- 34 message 32 [0 ffffffff 3 800] ------- [3:255 -1:255 32 0] 
s 15.039060054 _5_ RTR  --- 35 message 32 [0 0 0 0] ------- [5:255 -1:255 32 0] 
s 15.039315054 _5_ MAC  --- 35 message 90 [0 ffffffff 5 800] ------- [5:255 -1:255 32 0] 
s 15.654520496 _8_ RTR  --- 37 message 32 [0 0 0 0] ------- [8:255 -1:255 32 0] 
s 15.654695496 _8_ MAC  --- 37 message 90 [0 ffffffff 8 800] ------- [8:255 -1:255 32 0] 
r 15.655416086 _0_ MAC  --- 37 message 32 [0 ffffffff 8 800] ------- [8:255 -1:255 32 0] 
r 15.655441086 _0_ RTR  --- 37 message 32 [0 ffffffff 8 800] ------- [8:255 -1:255 32 0] 
s 16.212374156 _2_ RTR  --- 38 message 32 [0 0 0 0] ------- [2:255 -1:255 32 0] 
s 16.213029156 _2_ MAC  --- 38 message 90 [0 ffffffff 2 800] ------- [2:255 -1:255 32 0] 
r 16.213749861 _4_ MAC  --- 38 message 32 [0 ffffffff 2 800] ------- [2:255 -1:255 32 0] 
r 16.213774861 _4_ RTR  --- 38 message 32 [0 ffffffff 2 800] ------- [2:255 -1:255 32 0] 
M 22.00000 0 (428.32, 487.71, 0.00), (174.21, 363.60), 10.00
s 24.581023218 _4_ RTR  --- 39 message 32 [0 0 0 0] ------- [4:255 -1:255 32 0] 
s 24.581618218 _4_ MAC  --- 39 message 90 [0 ffffffff 4 800] ------- [4:255 -1:255 32 0] 
r 24.582338813 _0_ MAC  --- 39 message 32 [0 ffffffff 4 800] ------- [4:255 -1:255 32 0] 
r 24.582338923 _2_ MAC  --- 39 message 32 [0 ffffffff 4 800] ------- [4:255 -1:255 32 0] 
r 24.582363813 _0_ RTR  --- 39 message 32 [0 ffffffff 4 800] ------- [4:255 -1:255 32 0] 
r 24.582363923 _2_ RTR  --- 39 message 32 [0 ffffffff 4 800] ------- [4:255 -1:255 32 0] 
s 24.887542302 _7_ RTR  --- 40 message 68 [0 0 0 0] ------- [7:255 -1:255 32 0] 
s 24.887717302 _7_ MAC  --- 40 message 126 [0 ffffffff 7 800] ------- [7:255 -1:255 32 0] 
r 24.888725505 _1_ MAC  --- 40 message 68 [0 ffffffff 7 800] ------- [7:255 -1:255 32 0] 
r 24.888725533 _3_ MAC  --- 40 message 68 [0 ffffffff 7 800] ------- [7:255 -1:255 32 0] 
r 24.888725562 _9_ MAC  --- 40 message 68 [0 ffffffff 7 800] ------- [7:255 -1:255 32 0] 
r 24.888725588 _6_ MAC  --- 40 message 68 [0 ffffffff 7 800] ------- [7:255 -1:255 32 0] 
r 24.888750505 _1_ RTR  --- 40 message 68 [0 ffffffff 7 800] ------- [7:255 -1:255 32 0] 
r 24.888750533 _3_ RTR  --- 40 message 68 [0 ffffffff 7 800] ------- [7:255 -1:255 32 0] 
r 24.888750562 _9_ RTR  --- 40 message 68 [0 ffffffff 7 800] ------- [7:255 -1:255 32 0] 
r 24.888750588 _6_ RTR  --- 40 message 68 [0 ffffffff 7 800] ------- [7:255 -1:255 32 0] 
s 25.585904864 _8_ RTR  --- 41 message 44 [0 0 0 0] ------- [8:255 -1:255 32 0] 
s 25.586467782 _4_ RTR  --- 42 message 56 [0 0 0 0] ------- [4:255 -1:255 32 0] 
s 25.586479864 _8_ MAC  --- 41 message 102 [0 ffffffff 8 800] ------- [8:255 -1:255 32 0] 
r 25.587296571 _0_ MAC  --- 41 message 44 [0 ffffffff 8 800] ------- [8:255 -1:255 32 0] 
r 25.587321571 _0_ RTR  --- 41 message 44 [0 ffffffff 8 800] ------- [8:255 -1:255 32 0] 
s 25.587951087 _4_ MAC  --- 42 message 114 [0 ffffffff 4 800] ------- [4:255 -1:255 32 0] 
r 25.588863698 _0_ MAC  --- 42 message 56 [0 ffffffff 4 800] ------- [4:255 -1:255 32 0] 
r 25.588863792 _2_ MAC  --- 42 message 56 [0 ffffffff 4 800] ------- [4:255 -1:255 32 0] 
r 25.588888698 _0_ RTR  --- 42 message 56 [0 ffffffff 4 800] ------- [4:255 -1:255 32 0] 
r 25.588888792 _2_ RTR  --- 42 message 56 [0 ffffffff 4 800] ------- [4:255 -1:255 32 0] 
s 25.690717668 _0_ RTR  --- 43 message 56 [0 0 0 0] ------- [0:255 -1:255 32 0] 
s 25.690952668 _0_ MAC  --- 43 message 114 [0 ffffffff 0 800] ------- [0:255 -1:255 32 0] 
r 25.691865281 _4_ MAC  --- 43 message 56 [0 ffffffff 0 800] ------- [0:255 -1:255 32 0] 
r 25.691865377 _8_ MAC  --- 43 message 56 [0 ffffffff 0 800] ------- [0:255 -1:255 32 0] 
r 25.691890281 _4_ RTR  --- 43 message 56 [0 ffffffff 0 800] ------- [0:255 -1:255 32 0] 
r 25.691890377 _8_ RTR  --- 43 message 56 [0 ffffffff 0 800] ------- [0:255 -1:255 32 0] 
s 25.917474055 _0_ RTR  --- 44 message 68 [0 0 0 0] ------- [0:255 -1:255 32 0] 
s 25.918089055 _0_ MAC  --- 44 message 126 [0 ffffffff 0 800] ------- [0:255 -1:255 32 0] 
r 25.919097671 _4_ MAC  --- 44 message 68 [0 ffffffff 0 800] ------- [0:255 -1:255 32 0] 
r 25.919097765 _8_ MAC  --- 44 message 68 [0 ffffffff 0 800] ------- [0:255 -1:255 32 0] 
r 25.919122671 _4_ RTR  --- 44 message 68 [0 ffffffff 0 800] ------- [0:255 -1:255 32 0] 
r 25.919122765 _8_ RTR  --- 44 message 68 [0 ffffffff 0 800] ------- [0:255 -1:255 32 0] 
s 26.581685748 _4_ RTR  --- 45 message 44 [0 0 0 0] ------- [4:255 -1:255 32 0] 
s 26.582240748 _4_ MAC  --- 45 message 102 [0 ffffffff 4 800] ------- [4:255 -1:255 32 0] 
r 26.583057376 _0_ MAC  --- 45 message 44 [0 ffffffff 4 800] ------- [4:255 -1:255 32 0] 
r 26.583057453 _2_ MAC  --- 45 message 44 [0 ffffffff 4 800] ------- [4:255 -1:255 32 0] 
r 26.583082376 _0_ RTR  --- 45 message 44 [0 ffffffff 4 800] ------- [4:255 -1:255 32 0] 
r 26.583082453 _2_ RTR  --- 45 message 44 [0 ffffffff 4 800] ------- [4:255 -1:255 32 0] 
s 26.920084822 _1_ RTR  --- 46 message 68 [0 0 0 0] ------- [1:255 -1:255 32 0] 
s 26.920719822 _1_ MAC  --- 46 message 126 [0 ffffffff 1 800] ------- [1:255 -1:255 32 0] 
r 26.921727928 _6_ MAC  --- 46 message 68 [0 ffffffff 1 800] ------- [1:255 -1:255 32 0] 
r 26.921727985 _3_ MAC  --- 46 message 68 [0 ffffffff 1 800] ------- [1:255 -1:255 32 0] 
r 26.921728025 _7_ MAC  --- 46 message 68 [0 ffffffff 1 800] ------- [1:255 -1:255 32 0] 
r 26.921728283 _9_ MAC  --- 46 message 68 [0 ffffffff 1 800] ------- [1:255 -1:255 32 0] 
r 26.921752928 _6_ RTR  --- 46 message 68 [0 ffffffff 1 800] ------- [1:255 -1:255 32 0] 
r 26.921752985 _3_ RTR  --- 46 message 68 [0 ffffffff 1 800] ------- [1:255 -1:255 32 0] 
r 26.921753025 _7_ RTR  --- 46 message 68 [0 ffffffff 1 800] ------- [1:255 -1:255 32 0] 
r 26.921753283 _9_ RTR  --- 46 message 68 [0 ffffffff 1 800] ------- [1:255 -1:255 32 0] 
s 27.043134450 _9_ RTR  --- 47 message 56 [0 0 0 0] ------- [9:255 -1:255 32 0] 
s 27.043689450 _9_ MAC  --- 47 message 114 [0 ffffffff 9 800] ------- [9:255 -1:255 32 0] 
r 27.044601711 _7_ MAC  --- 47 message 56 [0 ffffffff 9 800] ------- [9:255 -1:255 32 0] 
r 27.044601885 _3_ MAC  --- 47 message 56 [0 ffffffff 9 800] ------- [9:255 -1:255 32 0] 
r 27.044601911 _1_ MAC  --- 47 message 56 [0 ffffffff 9 800] ------- [9:255 -1:255 32 0] 
r 27.044601981 _6_ MAC  --- 47 message 56 [0 ffffffff 9 800] ------- [9:255 -1:255 32 0] 
r 27.044626711 _7_ RTR  --- 47 message 56 [0 ffffffff 9 800] ------- [9:255 -1:255 32 0] 
r 27.044626885 _3_ RTR  --- 47 message 56 [0 ffffffff 9 800] ------- [9:255 -1:255 32 0] 
r 27.044626911 _1_ RTR  --- 47 message 56 [0 ffffffff 9 800] ------- [9:255 -1:255 32 0] 
r 27.044626981 _6_ RTR  --- 47 message 56 [0 ffffffff 9 800] ------- [9:255 -1:255 32 0] 
s 27.052490876 _8_ RTR  --- 48 message 44 [0 0 0 0] ------- [8:255 -1:255 32 0] 
s 27.052645876 _8_ MAC  --- 48 message 102 [0 ffffffff 8 800] ------- [8:255 -1:255 32 0] 
r 27.053462598 _0_ MAC  --- 48 message 44 [0 ffffffff 8 800] ------- [8:255 -1:255 32 0] 
r 27.053487598 _0_ RTR  --- 48 message 44 [0 ffffffff 8 800] ------- [8:255 -1:255 32 0] 
s 27.171526412 _5_ RTR  --- 49 message 44 [0 0 0 0] ------- [5:255 -1:255 32 0] 
s 27.171921412 _5_ MAC  --- 49 message 102 [0 ffffffff 5 800] ------- [5:255 -1:255 32 0] 
s 27.200086022 _4_ RTR  --- 50 message 68 [0 0 0 0] ------- [4:255 -1:255 32 0] 
s 27.200561022 _4_ MAC  --- 50 message 126 [0 ffffffff 4 800] ------- [4:255 -1:255 32 0] 
r 27.201569661 _0_ MAC  --- 50 message 68 [0 ffffffff 4 800] ------- [4:255 -1:255 32 0] 
r 27.201569727 _2_ MAC  --- 50 message 68 [0 ffffffff 4 800] ------- [4:255 -1:255 32 0] 
r 27.201594661 _0_ RTR  --- 50 message 68 [0 ffffffff 4 800] ------- [4:255 -1:255 32 0] 