n -t * -s 0  -x 550 -y 671 -Z 0 -z 20  -v circle -c black
n -t * -s 1  -x 175 -y 108 -Z 0 -z 20  -v circle -c black
n -t * -s 2  -x 532 -y 157 -Z 0 -z 20  -v circle -c black
n -t * -s 3  -x 165 -y 60 -Z 0 -z 20  -v circle -c black
n -t * -s 4  -x 547 -y 368 -Z 0 -z 20  -v circle -c black
n -t * -s 5  -x 726 -y 560 -Z 0 -z 20  -v circle -c black
n -t * -s 6  -x 197 -y 85 -Z 0 -z 20  -v circle -c black
n -t * -s 7  -x 114 -y 107 -Z 0 -z 20  -v circle -c black
n -t * -s 8  -x 354 -y 680 -Z 0 -z 20  -v circle -c black
n -t * -s 9  -x 38 -y 89 -Z 0 -z 20  -v circle -c black
V -t * -v 1.0a5 -a 0
W -t * -x 750 -y 750
A -t * -n 1 -p 0 -o 0x7fffffff -c 30 -a 1
A -t * -h 1 -m 1073741823 -s 0
n -t 0.000000 -s 0 -x 550.000000 -y 671.000000 -U -5.530783 -V -8.331293 -T 76.405149
+ -t 0.086530504 -s 4 -d -1 -p message -e 32 -c 2 -a 0 -i 0 -k RTR 
- -t 0.086530504 -s 4 -d -1 -p message -e 32 -c 2 -a 0 -i 0 -k RTR
h -t 0.086530504 -s 4 -d -1 -p message -e 32 -c 2 -a 0 -i 0 -k RTR
+ -t 0.086805504 -s 4 -d -1 -p message -e 90 -c 2 -a 0 -i 0 -k MAC 
- -t 0.086805504 -s 4 -d -1 -p message -e 90 -c 2 -a 0 -i 0 -k MAC
h -t 0.086805504 -s 4 -d -1 -p message -e 90 -c 2 -a 0 -i 0 -k MAC
r -t 0.087526209 -s 2 -d -1 -p message -e 32 -c 2 -a 0 -i 0 -k MAC
r -t 0.087551209 -s 2 -d -1 -p message -e 32 -c 2 -a 0 -i 0 -k RTR
+ -t 0.231703354 -s 6 -d -1 -p message -e 32 -c 2 -a 0 -i 1 -k RTR 
- -t 0.231703354 -s 6 -d -1 -p message -e 32 -c 2 -a 0 -i 1 -k RTR
h -t 0.231703354 -s 6 -d -1 -p message -e 32 -c 2 -a 0 -i 1 -k RTR
+ -t 0.232218354 -s 6 -d -1 -p message -e 90 -c 2 -a 0 -i 1 -k MAC 
- -t 0.232218354 -s 6 -d -1 -p message -e 90 -c 2 -a 0 -i 1 -k MAC
h -t 0.232218354 -s 6 -d -1 -p message -e 90 -c 2 -a 0 -i 1 -k MAC
r -t 0.232938460 -s 1 -d -1 -p message -e 32 -c 2 -a 0 -i 1 -k MAC
r -t 0.232938489 -s 3 -d -1 -p message -e 32 -c 2 -a 0 -i 1 -k MAC
r -t 0.232938640 -s 7 -d -1 -p message -e 32 -c 2 -a 0 -i 1 -k MAC
r -t 0.232938884 -s 9 -d -1 -p message -e 32 -c 2 -a 0 -i 1 -k MAC
r -t 0.232963460 -s 1 -d -1 -p message -e 32 -c 2 -a 0 -i 1 -k RTR
r -t 0.232963489 -s 3 -d -1 -p message -e 32 -c 2 -a 0 -i 1 -k RTR
r -t 0.232963640 -s 7 -d -1 -p message -e 32 -c 2 -a 0 -i 1 -k RTR
r -t 0.232963884 -s 9 -d -1 -p message -e 32 -c 2 -a 0 -i 1 -k RTR
+ -t 0.336911486 -s 3 -d -1 -p message -e 32 -c 2 -a 0 -i 2 -k RTR 
- -t 0.336911486 -s 3 -d -1 -p message -e 32 -c 2 -a 0 -i 2 -k RTR
h -t 0.336911486 -s 3 -d -1 -p message -e 32 -c 2 -a 0 -i 2 -k RTR
+ -t 0.337526486 -s 3 -d -1 -p message -e 90 -c 2 -a 0 -i 2 -k MAC 
- -t 0.337526486 -s 3 -d -1 -p message -e 90 -c 2 -a 0 -i 2 -k MAC
h -t 0.337526486 -s 3 -d -1 -p message -e 90 -c 2 -a 0 -i 2 -k MAC
r -t 0.338246621 -s 6 -d -1 -p message -e 32 -c 2 -a 0 -i 2 -k MAC
r -t 0.338246649 -s 1 -d -1 -p message -e 32 -c 2 -a 0 -i 2 -k MAC
r -t 0.338246717 -s 7 -d -1 -p message -e 32 -c 2 -a 0 -i 2 -k MAC
r -t 0.338246920 -s 9 -d -1 -p message -e 32 -c 2 -a 0 -i 2 -k MAC
r -t 0.338271621 -s 6 -d -1 -p message -e 32 -c 2 -a 0 -i 2 -k RTR
r -t 0.338271649 -s 1 -d -1 -p message -e 32 -c 2 -a 0 -i 2 -k RTR
r -t 0.338271717 -s 7 -d -1 -p message -e 32 -c 2 -a 0 -i 2 -k RTR
r -t 0.338271920 -s 9 -d -1 -p message -e 32 -c 2 -a 0 -i 2 -k RTR
+ -t 0.358121573 -s 9 -d -1 -p message -e 32 -c 2 -a 0 -i 3 -k RTR 
- -t 0.358121573 -s 9 -d -1 -p message -e 32 -c 2 -a 0 -i 3 -k RTR
h -t 0.358121573 -s 9 -d -1 -p message -e 32 -c 2 -a 0 -i 3 -k RTR
+ -t 0.358556573 -s 9 -d -1 -p message -e 90 -c 2 -a 0 -i 3 -k MAC 
- -t 0.358556573 -s 9 -d -1 -p message -e 90 -c 2 -a 0 -i 3 -k MAC
h -t 0.358556573 -s 9 -d -1 -p message -e 90 -c 2 -a 0 -i 3 -k MAC
r -t 0.359276834 -s 7 -d -1 -p message -e 32 -c 2 -a 0 -i 3 -k MAC
r -t 0.359277007 -s 3 -d -1 -p message -e 32 -c 2 -a 0 -i 3 -k MAC
r -t 0.359277034 -s 1 -d -1 -p message -e 32 -c 2 -a 0 -i 3 -k MAC
r -t 0.359277103 -s 6 -d -1 -p message -e 32 -c 2 -a 0 -i 3 -k MAC
r -t 0.359301834 -s 7 -d -1 -p message -e 32 -c 2 -a 0 -i 3 -k RTR
r -t 0.359302007 -s 3 -d -1 -p message -e 32 -c 2 -a 0 -i 3 -k RTR
r -t 0.359302034 -s 1 -d -1 -p message -e 32 -c 2 -a 0 -i 3 -k RTR
r -t 0.359302103 -s 6 -d -1 -p message -e 32 -c 2 -a 0 -i 3 -k RTR
+ -t 0.622213306 -s 1 -d -1 -p message -e 32 -c 2 -a 0 -i 4 -k RTR 
- -t 0.622213306 -s 1 -d -1 -p message -e 32 -c 2 -a 0 -i 4 -k RTR
h -t 0.622213306 -s 1 -d -1 -p message -e 32 -c 2 -a 0 -i 4 -k RTR
+ -t 0.622488306 -s 1 -d -1 -p message -e 90 -c 2 -a 0 -i 4 -k MAC 
- -t 0.622488306 -s 1 -d -1 -p message -e 90 -c 2 -a 0 -i 4 -k MAC
h -t 0.622488306 -s 1 -d -1 -p message -e 90 -c 2 -a 0 -i 4 -k MAC
r -t 0.623208413 -s 6 -d -1 -p message -e 32 -c 2 -a 0 -i 4 -k MAC
r -t 0.623208470 -s 3 -d -1 -p message -e 32 -c 2 -a 0 -i 4 -k MAC
r -t 0.623208510 -s 7 -d -1 -p message -e 32 -c 2 -a 0 -i 4 -k MAC
r -t 0.623208767 -s 9 -d -1 -p message -e 32 -c 2 -a 0 -i 4 -k MAC
r -t 0.623233413 -s 6 -d -1 -p message -e 32 -c 2 -a 0 -i 4 -k RTR
r -t 0.623233470 -s 3 -d -1 -p message -e 32 -c 2 -a 0 -i 4 -k RTR
r -t 0.623233510 -s 7 -d -1 -p message -e 32 -c 2 -a 0 -i 4 -k RTR
r -t 0.623233767 -s 9 -d -1 -p message -e 32 -c 2 -a 0 -i 4 -k RTR
+ -t 0.856187908 -s 8 -d -1 -p message -e 32 -c 2 -a 0 -i 5 -k RTR 
- -t 0.856187908 -s 8 -d -1 -p message -e 32 -c 2 -a 0 -i 5 -k RTR
h -t 0.856187908 -s 8 -d -1 -p message -e 32 -c 2 -a 0 -i 5 -k RTR
+ -t 0.856462908 -s 8 -d -1 -p message -e 90 -c 2 -a 0 -i 5 -k MAC 
- -t 0.856462908 -s 8 -d -1 -p message -e 90 -c 2 -a 0 -i 5 -k MAC
h -t 0.856462908 -s 8 -d -1 -p message -e 90 -c 2 -a 0 -i 5 -k MAC
r -t 0.857183548 -s 0 -d -1 -p message -e 32 -c 2 -a 0 -i 5 -k MAC
r -t 0.857208548 -s 0 -d -1 -p message -e 32 -c 2 -a 0 -i 5 -k RTR
+ -t 1.278314313 -s 0 -d -1 -p message -e 32 -c 2 -a 0 -i 6 -k RTR 
- -t 1.278314313 -s 0 -d -1 -p message -e 32 -c 2 -a 0 -i 6 -k RTR
h -t 1.278314313 -s 0 -d -1 -p message -e 32 -c 2 -a 0 -i 6 -k RTR
+ -t 1.278729313 -s 0 -d -1 -p message -e 90 -c 2 -a 0 -i 6 -k MAC 
- -t 1.278729313 -s 0 -d -1 -p message -e 90 -c 2 -a 0 -i 6 -k MAC
h -t 1.278729313 -s 0 -d -1 -p message -e 90 -c 2 -a 0 -i 6 -k MAC
r -t 1.279449946 -s 8 -d -1 -p message -e 32 -c 2 -a 0 -i 6 -k MAC
r -t 1.279450009 -s 5 -d -1 -p message -e 32 -c 2 -a 0 -i 6 -k MAC
r -t 1.279474946 -s 8 -d -1 -p message -e 32 -c 2 -a 0 -i 6 -k RTR
r -t 1.279475009 -s 5 -d -1 -p message -e 32 -c 2 -a 0 -i 6 -k RTR
+ -t 1.281366353 -s 5 -d -1 -p message -e 32 -c 2 -a 0 -i 7 -k RTR 
- -t 1.281366353 -s 5 -d -1 -p message -e 32 -c 2 -a 0 -i 7 -k RTR
h -t 1.281366353 -s 5 -d -1 -p message -e 32 -c 2 -a 0 -i 7 -k RTR
+ -t 1.281721353 -s 5 -d -1 -p message -e 90 -c 2 -a 0 -i 7 -k MAC 
- -t 1.281721353 -s 5 -d -1 -p message -e 90 -c 2 -a 0 -i 7 -k MAC
h -t 1.281721353 -s 5 -d -1 -p message -e 90 -c 2 -a 0 -i 7 -k MAC
r -t 1.282442049 -s 0 -d -1 -p message -e 32 -c 2 -a 0 -i 7 -k MAC
r -t 1.282467049 -s 0 -d -1 -p message -e 32 -c 2 -a 0 -i 7 -k RTR
+ -t 1.678095294 -s 2 -d -1 -p message -e 32 -c 2 -a 0 -i 8 -k RTR 
- -t 1.678095294 -s 2 -d -1 -p message -e 32 -c 2 -a 0 -i 8 -k RTR
h -t 1.678095294 -s 2 -d -1 -p message -e 32 -c 2 -a 0 -i 8 -k RTR
+ -t 1.678490294 -s 2 -d -1 -p message -e 90 -c 2 -a 0 -i 8 -k MAC 
- -t 1.678490294 -s 2 -d -1 -p message -e 90 -c 2 -a 0 -i 8 -k MAC
h -t 1.678490294 -s 2 -d -1 -p message -e 90 -c 2 -a 0 -i 8 -k MAC
r -t 1.679210999 -s 4 -d -1 -p message -e 32 -c 2 -a 0 -i 8 -k MAC
r -t 1.679235999 -s 4 -d -1 -p message -e 32 -c 2 -a 0 -i 8 -k RTR
+ -t 1.723712268 -s 7 -d -1 -p message -e 32 -c 2 -a 0 -i 9 -k RTR 
- -t 1.723712268 -s 7 -d -1 -p message -e 32 -c 2 -a 0 -i 9 -k RTR
h -t 1.723712268 -s 7 -d -1 -p message -e 32 -c 2 -a 0 -i 9 -k RTR
+ -t 1.724087268 -s 7 -d -1 -p message -e 90 -c 2 -a 0 -i 9 -k MAC 
- -t 1.724087268 -s 7 -d -1 -p message -e 90 -c 2 -a 0 -i 9 -k MAC
h -t 1.724087268 -s 7 -d -1 -p message -e 90 -c 2 -a 0 -i 9 -k MAC
r -t 1.724807471 -s 1 -d -1 -p message -e 32 -c 2 -a 0 -i 9 -k MAC
r -t 1.724807499 -s 3 -d -1 -p message -e 32 -c 2 -a 0 -i 9 -k MAC
r -t 1.724807528 -s 9 -d -1 -p message -e 32 -c 2 -a 0 -i 9 -k MAC
r -t 1.724807554 -s 6 -d -1 -p message -e 32 -c 2 -a 0 -i 9 -k MAC
r -t 1.724832471 -s 1 -d -1 -p message -e 32 -c 2 -a 0 -i 9 -k RTR
r -t 1.724832499 -s 3 -d -1 -p message -e 32 -c 2 -a 0 -i 9 -k RTR
r -t 1.724832528 -s 9 -d -1 -p message -e 32 -c 2 -a 0 -i 9 -k RTR
r -t 1.724832554 -s 6 -d -1 -p message -e 32 -c 2 -a 0 -i 9 -k RTR
+ -t 12.095401080 -s 2 -d -1 -p message -e 32 -c 2 -a 0 -i 10 -k RTR 
- -t 12.095401080 -s 2 -d -1 -p message -e 32 -c 2 -a 0 -i 10 -k RTR
h -t 12.095401080 -s 2 -d -1 -p message -e 32 -c 2 -a 0 -i 10 -k RTR
+ -t 12.095776080 -s 2 -d -1 -p message -e 90 -c 2 -a 0 -i 10 -k MAC 
- -t 12.095776080 -s 2 -d -1 -p message -e 90 -c 2 -a 0 -i 10 -k MAC
h -t 12.095776080 -s 2 -d -1 -p message -e 90 -c 2 -a 0 -i 10 -k MAC
r -t 12.096496785 -s 4 -d -1 -p message -e 32 -c 2 -a 0 -i 10 -k MAC
r -t 12.096521785 -s 4 -d -1 -p message -e 32 -c 2 -a 0 -i 10 -k RTR
+ -t 12.234750919 -s 7 -d -1 -p message -e 32 -c 2 -a 0 -i 13 -k RTR 
- -t 12.234750919 -s 7 -d -1 -p message -e 32 -c 2 -a 0 -i 13 -k RTR
h -t 12.234750919 -s 7 -d -1 -p message -e 32 -c 2 -a 0 -i 13 -k RTR
+ -t 12.235030800 -s 1 -d -1 -p message -e 32 -c 2 -a 0 -i 11 -k RTR 
- -t 12.235030800 -s 1 -d -1 -p message -e 32 -c 2 -a 0 -i 11 -k RTR
h -t 12.235030800 -s 1 -d -1 -p message -e 32 -c 2 -a 0 -i 11 -k RTR
+ -t 12.235125919 -s 7 -d -1 -p message -e 90 -c 2 -a 0 -i 13 -k MAC 
- -t 12.235125919 -s 7 -d -1 -p message -e 90 -c 2 -a 0 -i 13 -k MAC
h -t 12.235125919 -s 7 -d -1 -p message -e 90 -c 2 -a 0 -i 13 -k MAC
r -t 12.235846122 -s 1 -d -1 -p message -e 32 -c 2 -a 0 -i 13 -k MAC
r -t 12.235846150 -s 3 -d -1 -p message -e 32 -c 2 -a 0 -i 13 -k MAC
r -t 12.235846179 -s 9 -d -1 -p message -e 32 -c 2 -a 0 -i 13 -k MAC
r -t 12.235846205 -s 6 -d -1 -p message -e 32 -c 2 -a 0 -i 13 -k MAC
r -t 12.235871122 -s 1 -d -1 -p message -e 32 -c 2 -a 0 -i 13 -k RTR
r -t 12.235871150 -s 3 -d -1 -p message -e 32 -c 2 -a 0 -i 13 -k RTR
r -t 12.235871179 -s 9 -d -1 -p message -e 32 -c 2 -a 0 -i 13 -k RTR
r -t 12.235871205 -s 6 -d -1 -p message -e 32 -c 2 -a 0 -i 13 -k RTR
+ -t 12.235916122 -s 1 -d -1 -p message -e 90 -c 2 -a 0 -i 11 -k MAC 
- -t 12.235916122 -s 1 -d -1 -p message -e 90 -c 2 -a 0 -i 11 -k MAC
h -t 12.235916122 -s 1 -d -1 -p message -e 90 -c 2 -a 0 -i 11 -k MAC
r -t 12.236636228 -s 6 -d -1 -p message -e 32 -c 2 -a 0 -i 11 -k MAC
r -t 12.236636285 -s 3 -d -1 -p message -e 32 -c 2 -a 0 -i 11 -k MAC
r -t 12.236636325 -s 7 -d -1 -p message -e 32 -c 2 -a 0 -i 11 -k MAC
r -t 12.236636583 -s 9 -d -1 -p message -e 32 -c 2 -a 0 -i 11 -k MAC
r -t 12.236661228 -s 6 -d -1 -p message -e 32 -c 2 -a 0 -i 11 -k RTR
r -t 12.236661285 -s 3 -d -1 -p message -e 32 -c 2 -a 0 -i 11 -k RTR
r -t 12.236661325 -s 7 -d -1 -p message -e 32 -c 2 -a 0 -i 11 -k RTR
r -t 12.236661583 -s 9 -d -1 -p message -e 32 -c 2 -a 0 -i 11 -k RTR
+ -t 12.239912862 -s 3 -d -1 -p message -e 32 -c 2 -a 0 -i 12 -k RTR 
- -t 12.239912862 -s 3 -d -1 -p message -e 32 -c 2 -a 0 -i 12 -k RTR
h -t 12.239912862 -s 3 -d -1 -p message -e 32 -c 2 -a 0 -i 12 -k RTR
+ -t 12.240187862 -s 3 -d -1 -p message -e 90 -c 2 -a 0 -i 12 -k MAC 
- -t 12.240187862 -s 3 -d -1 -p message -e 90 -c 2 -a 0 -i 12 -k MAC
h -t 12.240187862 -s 3 -d -1 -p message -e 90 -c 2 -a 0 -i 12 -k MAC
r -t 12.240907997 -s 6 -d -1 -p message -e 32 -c 2 -a 0 -i 12 -k MAC
r -t 12.240908025 -s 1 -d -1 -p message -e 32 -c 2 -a 0 -i 12 -k MAC
r -t 12.240908093 -s 7 -d -1 -p message -e 32 -c 2 -a 0 -i 12 -k MAC
r -t 12.240908296 -s 9 -d -1 -p message -e 32 -c 2 -a 0 -i 12 -k MAC
r -t 12.240932997 -s 6 -d -1 -p message -e 32 -c 2 -a 0 -i 12 -k RTR
r -t 12.240933025 -s 1 -d -1 -p message -e 32 -c 2 -a 0 -i 12 -k RTR
r -t 12.240933093 -s 7 -d -1 -p message -e 32 -c 2 -a 0 -i 12 -k RTR
r -t 12.240933296 -s 9 -d -1 -p message -e 32 -c 2 -a 0 -i 12 -k RTR
+ -t 12.242723951 -s 9 -d -1 -p message -e 32 -c 2 -a 0 -i 14 -k RTR 
- -t 12.242723951 -s 9 -d -1 -p message -e 32 -c 2 -a 0 -i 14 -k RTR
h -t 12.242723951 -s 9 -d -1 -p message -e 32 -c 2 -a 0 -i 14 -k RTR
+ -t 12.242878951 -s 9 -d -1 -p message -e 90 -c 2 -a 0 -i 14 -k MAC 
- -t 12.242878951 -s 9 -d -1 -p message -e 90 -c 2 -a 0 -i 14 -k MAC
h -t 12.242878951 -s 9 -d -1 -p message -e 90 -c 2 -a 0 -i 14 -k MAC
r -t 12.243599211 -s 7 -d -1 -p message -e 32 -c 2 -a 0 -i 14 -k MAC
r -t 12.243599385 -s 3 -d -1 -p message -e 32 -c 2 -a 0 -i 14 -k MAC
r -t 12.243599412 -s 1 -d -1 -p message -e 32 -c 2 -a 0 -i 14 -k MAC
r -t 12.243599481 -s 6 -d -1 -p message -e 32 -c 2 -a 0 -i 14 -k MAC
r -t 12.243624211 -s 7 -d -1 -p message -e 32 -c 2 -a 0 -i 14 -k RTR
r -t 12.243624385 -s 3 -d -1 -p message -e 32 -c 2 -a 0 -i 14 -k RTR
r -t 12.243624412 -s 1 -d -1 -p message -e 32 -c 2 -a 0 -i 14 -k RTR
r -t 12.243624481 -s 6 -d -1 -p message -e 32 -c 2 -a 0 -i 14 -k RTR
+ -t 12.285796387 -s 1 -d -1 -p message -e 44 -c 2 -a 0 -i 15 -k RTR 
- -t 12.285796387 -s 1 -d -1 -p message -e 44 -c 2 -a 0 -i 15 -k RTR
h -t 12.285796387 -s 1 -d -1 -p message -e 44 -c 2 -a 0 -i 15 -k RTR
+ -t 12.286211387 -s 1 -d -1 -p message -e 102 -c 2 -a 0 -i 15 -k MAC 
- -t 12.286211387 -s 1 -d -1 -p message -e 102 -c 2 -a 0 -i 15 -k MAC
h -t 12.286211387 -s 1 -d -1 -p message -e 102 -c 2 -a 0 -i 15 -k MAC
r -t 12.287027493 -s 6 -d -1 -p message -e 44 -c 2 -a 0 -i 15 -k MAC
r -t 12.287027550 -s 3 -d -1 -p message -e 44 -c 2 -a 0 -i 15 -k MAC
r -t 12.287027590 -s 7 -d -1 -p message -e 44 -c 2 -a 0 -i 15 -k MAC
r -t 12.287027848 -s 9 -d -1 -p message -e 44 -c 2 -a 0 -i 15 -k MAC
r -t 12.287052493 -s 6 -d -1 -p message -e 44 -c 2 -a 0 -i 15 -k RTR
r -t 12.287052550 -s 3 -d -1 -p message -e 44 -c 2 -a 0 -i 15 -k RTR
r -t 12.287052590 -s 7 -d -1 -p message -e 44 -c 2 -a 0 -i 15 -k RTR
r -t 12.287052848 -s 9 -d -1 -p message -e 44 -c 2 -a 0 -i 15 -k RTR
+ -t 12.344132746 -s 6 -d -1 -p message -e 32 -c 2 -a 0 -i 16 -k RTR 
- -t 12.344132746 -s 6 -d -1 -p message -e 32 -c 2 -a 0 -i 16 -k RTR
h -t 12.344132746 -s 6 -d -1 -p message -e 32 -c 2 -a 0 -i 16 -k RTR
+ -t 12.344267746 -s 6 -d -1 -p message -e 90 -c 2 -a 0 -i 16 -k MAC 
- -t 12.344267746 -s 6 -d -1 -p message -e 90 -c 2 -a 0 -i 16 -k MAC
h -t 12.344267746 -s 6 -d -1 -p message -e 90 -c 2 -a 0 -i 16 -k MAC
r -t 12.344987852 -s 1 -d -1 -p message -e 32 -c 2 -a 0 -i 16 -k MAC
r -t 12.344987882 -s 3 -d -1 -p message -e 32 -c 2 -a 0 -i 16 -k MAC
r -t 12.344988032 -s 7 -d -1 -p message -e 32 -c 2 -a 0 -i 16 -k MAC
r -t 12.344988276 -s 9 -d -1 -p message -e 32 -c 2 -a 0 -i 16 -k MAC
r -t 12.345012852 -s 1 -d -1 -p message -e 32 -c 2 -a 0 -i 16 -k RTR
r -t 12.345012882 -s 3 -d -1 -p message -e 32 -c 2 -a 0 -i 16 -k RTR
r -t 12.345013032 -s 7 -d -1 -p message -e 32 -c 2 -a 0 -i 16 -k RTR
r -t 12.345013276 -s 9 -d -1 -p message -e 32 -c 2 -a 0 -i 16 -k RTR
+ -t 12.571822141 -s 0 -d -1 -p message -e 32 -c 2 -a 0 -i 17 -k RTR 
- -t 12.571822141 -s 0 -d -1 -p message -e 32 -c 2 -a 0 -i 17 -k RTR
h -t 12.571822141 -s 0 -d -1 -p message -e 32 -c 2 -a 0 -i 17 -k RTR
+ -t 12.572337141 -s 0 -d -1 -p message -e 90 -c 2 -a 0 -i 17 -k MAC 
- -t 12.572337141 -s 0 -d -1 -p message -e 90 -c 2 -a 0 -i 17 -k MAC
h -t 12.572337141 -s 0 -d -1 -p message -e 90 -c 2 -a 0 -i 17 -k MAC
r -t 12.573057708 -s 8 -d -1 -p message -e 32 -c 2 -a 0 -i 17 -k MAC
r -t 12.573057838 -s 4 -d -1 -p message -e 32 -c 2 -a 0 -i 17 -k MAC
r -t 12.573057959 -s 5 -d -1 -p message -e 32 -c 2 -a 0 -i 17 -k MAC
r -t 12.573082708 -s 8 -d -1 -p message -e 32 -c 2 -a 0 -i 17 -k RTR
r -t 12.573082838 -s 4 -d -1 -p message -e 32 -c 2 -a 0 -i 17 -k RTR
r -t 12.573082959 -s 5 -d -1 -p message -e 32 -c 2 -a 0 -i 17 -k RTR
+ -t 13.079431175 -s 7 -d -1 -p message -e 68 -c 2 -a 0 -i 18 -k RTR 
- -t 13.079431175 -s 7 -d -1 -p message -e 68 -c 2 -a 0 -i 18 -k RTR
h -t 13.079431175 -s 7 -d -1 -p message -e 68 -c 2 -a 0 -i 18 -k RTR
+ -t 13.079806175 -s 7 -d -1 -p message -e 126 -c 2 -a 0 -i 18 -k MAC 
- -t 13.079806175 -s 7 -d -1 -p message -e 126 -c 2 -a 0 -i 18 -k MAC
h -t 13.079806175 -s 7 -d -1 -p message -e 126 -c 2 -a 0 -i 18 -k MAC
r -t 13.080814379 -s 1 -d -1 -p message -e 68 -c 2 -a 0 -i 18 -k MAC
r -t 13.080814407 -s 3 -d -1 -p message -e 68 -c 2 -a 0 -i 18 -k MAC
r -t 13.080814436 -s 9 -d -1 -p message -e 68 -c 2 -a 0 -i 18 -k MAC
r -t 13.080814462 -s 6 -d -1 -p message -e 68 -c 2 -a 0 -i 18 -k MAC
r -t 13.080839379 -s 1 -d -1 -p message -e 68 -c 2 -a 0 -i 18 -k RTR
r -t 13.080839407 -s 3 -d -1 -p message -e 68 -c 2 -a 0 -i 18 -k RTR
r -t 13.080839436 -s 9 -d -1 -p message -e 68 -c 2 -a 0 -i 18 -k RTR
r -t 13.080839462 -s 6 -d -1 -p message -e 68 -c 2 -a 0 -i 18 -k RTR
+ -t 13.232965629 -s 9 -d -1 -p message -e 44 -c 2 -a 0 -i 20 -k RTR 
- -t 13.232965629 -s 9 -d -1 -p message -e 44 -c 2 -a 0 -i 20 -k RTR
h -t 13.232965629 -s 9 -d -1 -p message -e 44 -c 2 -a 0 -i 20 -k RTR
+ -t 13.233260629 -s 9 -d -1 -p message -e 102 -c 2 -a 0 -i 20 -k MAC 
- -t 13.233260629 -s 9 -d -1 -p message -e 102 -c 2 -a 0 -i 20 -k MAC
h -t 13.233260629 -s 9 -d -1 -p message -e 102 -c 2 -a 0 -i 20 -k MAC
r -t 13.234076890 -s 7 -d -1 -p message -e 44 -c 2 -a 0 -i 20 -k MAC
r -t 13.234077064 -s 3 -d -1 -p message -e 44 -c 2 -a 0 -i 20 -k MAC
r -t 13.234077091 -s 1 -d -1 -p message -e 44 -c 2 -a 0 -i 20 -k MAC
r -t 13.234077160 -s 6 -d -1 -p message -e 44 -c 2 -a 0 -i 20 -k MAC
r -t 13.234101890 -s 7 -d -1 -p message -e 44 -c 2 -a 0 -i 20 -k RTR
r -t 13.234102064 -s 3 -d -1 -p message -e 44 -c 2 -a 0 -i 20 -k RTR
r -t 13.234102091 -s 1 -d -1 -p message -e 44 -c 2 -a 0 -i 20 -k RTR
r -t 13.234102160 -s 6 -d -1 -p message -e 44 -c 2 -a 0 -i 20 -k RTR
+ -t 13.236699528 -s 3 -d -1 -p message -e 44 -c 2 -a 0 -i 19 -k RTR 
- -t 13.236699528 -s 3 -d -1 -p message -e 44 -c 2 -a 0 -i 19 -k RTR
h -t 13.236699528 -s 3 -d -1 -p message -e 44 -c 2 -a 0 -i 19 -k RTR
+ -t 13.236934528 -s 3 -d -1 -p message -e 102 -c 2 -a 0 -i 19 -k MAC 
- -t 13.236934528 -s 3 -d -1 -p message -e 102 -c 2 -a 0 -i 19 -k MAC
h -t 13.236934528 -s 3 -d -1 -p message -e 102 -c 2 -a 0 -i 19 -k MAC
r -t 13.237750663 -s 6 -d -1 -p message -e 44 -c 2 -a 0 -i 19 -k MAC
r -t 13.237750691 -s 1 -d -1 -p message -e 44 -c 2 -a 0 -i 19 -k MAC
r -t 13.237750759 -s 7 -d -1 -p message -e 44 -c 2 -a 0 -i 19 -k MAC
r -t 13.237750962 -s 9 -d -1 -p message -e 44 -c 2 -a 0 -i 19 -k MAC
r -t 13.237775663 -s 6 -d -1 -p message -e 44 -c 2 -a 0 -i 19 -k RTR
r -t 13.237775691 -s 1 -d -1 -p message -e 44 -c 2 -a 0 -i 19 -k RTR
r -t 13.237775759 -s 7 -d -1 -p message -e 44 -c 2 -a 0 -i 19 -k RTR
r -t 13.237775962 -s 9 -d -1 -p message -e 44 -c 2 -a 0 -i 19 -k RTR
+ -t 13.277980309 -s 1 -d -1 -p message -e 44 -c 2 -a 0 -i 21 -k RTR 
- -t 13.277980309 -s 1 -d -1 -p message -e 44 -c 2 -a 0 -i 21 -k RTR
h -t 13.277980309 -s 1 -d -1 -p message -e 44 -c 2 -a 0 -i 21 -k RTR
+ -t 13.278175309 -s 1 -d -1 -p message -e 102 -c 2 -a 0 -i 21 -k MAC 
- -t 13.278175309 -s 1 -d -1 -p message -e 102 -c 2 -a 0 -i 21 -k MAC
h -t 13.278175309 -s 1 -d -1 -p message -e 102 -c 2 -a 0 -i 21 -k MAC
r -t 13.278991415 -s 6 -d -1 -p message -e 44 -c 2 -a 0 -i 21 -k MAC
r -t 13.278991472 -s 3 -d -1 -p message -e 44 -c 2 -a 0 -i 21 -k MAC
r -t 13.278991512 -s 7 -d -1 -p message -e 44 -c 2 -a 0 -i 21 -k MAC
r -t 13.278991770 -s 9 -d -1 -p message -e 44 -c 2 -a 0 -i 21 -k MAC
r -t 13.279016415 -s 6 -d -1 -p message -e 44 -c 2 -a 0 -i 21 -k RTR
r -t 13.279016472 -s 3 -d -1 -p message -e 44 -c 2 -a 0 -i 21 -k RTR
r -t 13.279016512 -s 7 -d -1 -p message -e 44 -c 2 -a 0 -i 21 -k RTR
r -t 13.279016770 -s 9 -d -1 -p message -e 44 -c 2 -a 0 -i 21 -k RTR
+ -t 13.338305124 -s 6 -d -1 -p message -e 44 -c 2 -a 0 -i 24 -k RTR 
- -t 13.338305124 -s 6 -d -1 -p message -e 44 -c 2 -a 0 -i 24 -k RTR
h -t 13.338305124 -s 6 -d -1 -p message -e 44 -c 2 -a 0 -i 24 -k RTR
+ -t 13.338380124 -s 6 -d -1 -p message -e 102 -c 2 -a 0 -i 24 -k MAC 
- -t 13.338380124 -s 6 -d -1 -p message -e 102 -c 2 -a 0 -i 24 -k MAC
h -t 13.338380124 -s 6 -d -1 -p message -e 102 -c 2 -a 0 -i 24 -k MAC
r -t 13.339196230 -s 1 -d -1 -p message -e 44 -c 2 -a 0 -i 24 -k MAC
r -t 13.339196259 -s 3 -d -1 -p message -e 44 -c 2 -a 0 -i 24 -k MAC
r -t 13.339196410 -s 7 -d -1 -p message -e 44 -c 2 -a 0 -i 24 -k MAC
r -t 13.339196654 -s 9 -d -1 -p message -e 44 -c 2 -a 0 -i 24 -k MAC
r -t 13.339221230 -s 1 -d -1 -p message -e 44 -c 2 -a 0 -i 24 -k RTR
r -t 13.339221259 -s 3 -d -1 -p message -e 44 -c 2 -a 0 -i 24 -k RTR
r -t 13.339221410 -s 7 -d -1 -p message -e 44 -c 2 -a 0 -i 24 -k RTR
r -t 13.339221654 -s 9 -d -1 -p message -e 44 -c 2 -a 0 -i 24 -k RTR
+ -t 13.431349434 -s 6 -d -1 -p message -e 56 -c 2 -a 0 -i 25 -k RTR 
- -t 13.431349434 -s 6 -d -1 -p message -e 56 -c 2 -a 0 -i 25 -k RTR
h -t 13.431349434 -s 6 -d -1 -p message -e 56 -c 2 -a 0 -i 25 -k RTR
+ -t 13.431844434 -s 6 -d -1 -p message -e 114 -c 2 -a 0 -i 25 -k MAC 
- -t 13.431844434 -s 6 -d -1 -p message -e 114 -c 2 -a 0 -i 25 -k MAC
h -t 13.431844434 -s 6 -d -1 -p message -e 114 -c 2 -a 0 -i 25 -k MAC
r -t 13.432756540 -s 1 -d -1 -p message -e 56 -c 2 -a 0 -i 25 -k MAC
r -t 13.432756569 -s 3 -d -1 -p message -e 56 -c 2 -a 0 -i 25 -k MAC
r -t 13.432756720 -s 7 -d -1 -p message -e 56 -c 2 -a 0 -i 25 -k MAC
r -t 13.432756964 -s 9 -d -1 -p message -e 56 -c 2 -a 0 -i 25 -k MAC
r -t 13.432781540 -s 1 -d -1 -p message -e 56 -c 2 -a 0 -i 25 -k RTR
r -t 13.432781569 -s 3 -d -1 -p message -e 56 -c 2 -a 0 -i 25 -k RTR
r -t 13.432781720 -s 7 -d -1 -p message -e 56 -c 2 -a 0 -i 25 -k RTR
r -t 13.432781964 -s 9 -d -1 -p message -e 56 -c 2 -a 0 -i 25 -k RTR
+ -t 13.575813910 -s 0 -d -1 -p message -e 44 -c 2 -a 0 -i 26 -k RTR 
- -t 13.575813910 -s 0 -d -1 -p message -e 44 -c 2 -a 0 -i 26 -k RTR
h -t 13.575813910 -s 0 -d -1 -p message -e 44 -c 2 -a 0 -i 26 -k RTR
+ -t 13.576048910 -s 0 -d -1 -p message -e 102 -c 2 -a 0 -i 26 -k MAC 
- -t 13.576048910 -s 0 -d -1 -p message -e 102 -c 2 -a 0 -i 26 -k MAC
h -t 13.576048910 -s 0 -d -1 -p message -e 102 -c 2 -a 0 -i 26 -k MAC
r -t 13.576865482 -s 8 -d -1 -p message -e 44 -c 2 -a 0 -i 26 -k MAC
r -t 13.576865587 -s 4 -d -1 -p message -e 44 -c 2 -a 0 -i 26 -k MAC
r -t 13.576890482 -s 8 -d -1 -p message -e 44 -c 2 -a 0 -i 26 -k RTR
r -t 13.576890587 -s 4 -d -1 -p message -e 44 -c 2 -a 0 -i 26 -k RTR
+ -t 13.684443467 -s 4 -d -1 -p message -e 32 -c 2 -a 0 -i 27 -k RTR 
- -t 13.684443467 -s 4 -d -1 -p message -e 32 -c 2 -a 0 -i 27 -k RTR
h -t 13.684443467 -s 4 -d -1 -p message -e 32 -c 2 -a 0 -i 27 -k RTR
+ -t 13.684618467 -s 4 -d -1 -p message -e 90 -c 2 -a 0 -i 27 -k MAC 
- -t 13.684618467 -s 4 -d -1 -p message -e 90 -c 2 -a 0 -i 27 -k MAC
h -t 13.684618467 -s 4 -d -1 -p message -e 90 -c 2 -a 0 -i 27 -k MAC
r -t 13.685339142 -s 0 -d -1 -p message -e 32 -c 2 -a 0 -i 27 -k MAC
r -t 13.685339173 -s 2 -d -1 -p message -e 32 -c 2 -a 0 -i 27 -k MAC
r -t 13.685364142 -s 0 -d -1 -p message -e 32 -c 2 -a 0 -i 27 -k RTR
r -t 13.685364173 -s 2 -d -1 -p message -e 32 -c 2 -a 0 -i 27 -k RTR
+ -t 14.139829016 -s 9 -d -1 -p message -e 44 -c 2 -a 0 -i 29 -k RTR 
- -t 14.139829016 -s 9 -d -1 -p message -e 44 -c 2 -a 0 -i 29 -k RTR
h -t 14.139829016 -s 9 -d -1 -p message -e 44 -c 2 -a 0 -i 29 -k RTR
+ -t 14.140504016 -s 9 -d -1 -p message -e 102 -c 2 -a 0 -i 29 -k MAC 
- -t 14.140504016 -s 9 -d -1 -p message -e 102 -c 2 -a 0 -i 29 -k MAC
h -t 14.140504016 -s 9 -d -1 -p message -e 102 -c 2 -a 0 -i 29 -k MAC
r -t 14.141320277 -s 7 -d -1 -p message -e 44 -c 2 -a 0 -i 29 -k MAC
r -t 14.141320451 -s 3 -d -1 -p message -e 44 -c 2 -a 0 -i 29 -k MAC
r -t 14.141320477 -s 1 -d -1 -p message -e 44 -c 2 -a 0 -i 29 -k MAC
r -t 14.141320546 -s 6 -d -1 -p message -e 44 -c 2 -a 0 -i 29 -k MAC
r -t 14.141345277 -s 7 -d -1 -p message -e 44 -c 2 -a 0 -i 29 -k RTR
r -t 14.141345451 -s 3 -d -1 -p message -e 44 -c 2 -a 0 -i 29 -k RTR
r -t 14.141345477 -s 1 -d -1 -p message -e 44 -c 2 -a 0 -i 29 -k RTR
r -t 14.141345546 -s 6 -d -1 -p message -e 44 -c 2 -a 0 -i 29 -k RTR
+ -t 14.278844157 -s 1 -d -1 -p message -e 32 -c 2 -a 0 -i 31 -k RTR 
- -t 14.278844157 -s 1 -d -1 -p message -e 32 -c 2 -a 0 -i 31 -k RTR
h -t 14.278844157 -s 1 -d -1 -p message -e 32 -c 2 -a 0 -i 31 -k RTR
+ -t 14.278939157 -s 1 -d -1 -p message -e 90 -c 2 -a 0 -i 31 -k MAC 
- -t 14.278939157 -s 1 -d -1 -p message -e 90 -c 2 -a 0 -i 31 -k MAC
h -t 14.278939157 -s 1 -d -1 -p message -e 90 -c 2 -a 0 -i 31 -k MAC
r -t 14.279659263 -s 6 -d -1 -p message -e 32 -c 2 -a 0 -i 31 -k MAC
r -t 14.279659320 -s 3 -d -1 -p message -e 32 -c 2 -a 0 -i 31 -k MAC
r -t 14.279659360 -s 7 -d -1 -p message -e 32 -c 2 -a 0 -i 31 -k MAC
r -t 14.279659618 -s 9 -d -1 -p message -e 32 -c 2 -a 0 -i 31 -k MAC
r -t 14.279684263 -s 6 -d -1 -p message -e 32 -c 2 -a 0 -i 31 -k RTR
r -t 14.279684320 -s 3 -d -1 -p message -e 32 -c 2 -a 0 -i 31 -k RTR
r -t 14.279684360 -s 7 -d -1 -p message -e 32 -c 2 -a 0 -i 31 -k RTR
r -t 14.279684618 -s 9 -d -1 -p message -e 32 -c 2 -a 0 -i 31 -k RTR
+ -t 14.366250240 -s 4 -d -1 -p message -e 44 -c 2 -a 0 -i 32 -k RTR 
- -t 14.366250240 -s 4 -d -1 -p message -e 44 -c 2 -a 0 -i 32 -k RTR
h -t 14.366250240 -s 4 -d -1 -p message -e 44 -c 2 -a 0 -i 32 -k RTR
+ -t 14.366345240 -s 4 -d -1 -p message -e 102 -c 2 -a 0 -i 32 -k MAC 
- -t 14.366345240 -s 4 -d -1 -p message -e 102 -c 2 -a 0 -i 32 -k MAC
h -t 14.366345240 -s 4 -d -1 -p message -e 102 -c 2 -a 0 -i 32 -k MAC
r -t 14.367161902 -s 0 -d -1 -p message -e 44 -c 2 -a 0 -i 32 -k MAC
r -t 14.367161945 -s 2 -d -1 -p message -e 44 -c 2 -a 0 -i 32 -k MAC
r -t 14.367186902 -s 0 -d -1 -p message -e 44 -c 2 -a 0 -i 32 -k RTR
r -t 14.367186945 -s 2 -d -1 -p message -e 44 -c 2 -a 0 -i 32 -k RTR
+ -t 14.732483065 -s 3 -d -1 -p message -e 32 -c 2 -a 0 -i 34 -k RTR 
- -t 14.732483065 -s 3 -d -1 -p message -e 32 -c 2 -a 0 -i 34 -k RTR
h -t 14.732483065 -s 3 -d -1 -p message -e 32 -c 2 -a 0 -i 34 -k RTR
+ -t 14.733038065 -s 3 -d -1 -p message -e 90 -c 2 -a 0 -i 34 -k MAC 
- -t 14.733038065 -s 3 -d -1 -p message -e 90 -c 2 -a 0 -i 34 -k MAC
h -t 14.733038065 -s 3 -d -1 -p message -e 90 -c 2 -a 0 -i 34 -k MAC
r -t 14.733758200 -s 6 -d -1 -p message -e 32 -c 2 -a 0 -i 34 -k MAC
r -t 14.733758228 -s 1 -d -1 -p message -e 32 -c 2 -a 0 -i 34 -k MAC
r -t 14.733758296 -s 7 -d -1 -p message -e 32 -c 2 -a 0 -i 34 -k MAC
r -t 14.733758499 -s 9 -d -1 -p message -e 32 -c 2 -a 0 -i 34 -k MAC
r -t 14.733783200 -s 6 -d -1 -p message -e 32 -c 2 -a 0 -i 34 -k RTR
r -t 14.733783228 -s 1 -d -1 -p message -e 32 -c 2 -a 0 -i 34 -k RTR
r -t 14.733783296 -s 7 -d -1 -p message -e 32 -c 2 -a 0 -i 34 -k RTR
r -t 14.733783499 -s 9 -d -1 -p message -e 32 -c 2 -a 0 -i 34 -k RTR
+ -t 15.039060054 -s 5 -d -1 -p message -e 32 -c 2 -a 0 -i 35 -k RTR 
- -t 15.039060054 -s 5 -d -1 -p message -e 32 -c 2 -a 0 -i 35 -k RTR
h -t 15.039060054 -s 5 -d -1 -p message -e 32 -c 2 -a 0 -i 35 -k RTR
+ -t 15.039315054 -s 5 -d -1 -p message -e 90 -c 2 -a 0 -i 35 -k MAC 
- -t 15.039315054 -s 5 -d -1 -p message -e 90 -c 2 -a 0 -i 35 -k MAC
h -t 15.039315054 -s 5 -d -1 -p message -e 90 -c 2 -a 0 -i 35 -k MAC
+ -t 15.654520496 -s 8 -d -1 -p message -e 32 -c 2 -a 0 -i 37 -k RTR 
- -t 15.654520496 -s 8 -d -1 -p message -e 32 -c 2 -a 0 -i 37 -k RTR
h -t 15.654520496 -s 8 -d -1 -p message -e 32 -c 2 -a 0 -i 37 -k RTR
+ -t 15.654695496 -s 8 -d -1 -p message -e 90 -c 2 -a 0 -i 37 -k MAC 
- -t 15.654695496 -s 8 -d -1 -p message -e 90 -c 2 -a 0 -i 37 -k MAC
h -t 15.654695496 -s 8 -d -1 -p message -e 90 -c 2 -a 0 -i 37 -k MAC
r -t 15.655416086 -s 0 -d -1 -p message -e 32 -c 2 -a 0 -i 37 -k MAC
r -t 15.655441086 -s 0 -d -1 -p message -e 32 -c 2 -a 0 -i 37 -k RTR
+ -t 16.212374156 -s 2 -d -1 -p message -e 32 -c 2 -a 0 -i 38 -k RTR 
- -t 16.212374156 -s 2 -d -1 -p message -e 32 -c 2 -a 0 -i 38 -k RTR
h -t 16.212374156 -s 2 -d -1 -p message -e 32 -c 2 -a 0 -i 38 -k RTR
+ -t 16.213029156 -s 2 -d -1 -p message -e 90 -c 2 -a 0 -i 38 -k MAC 
- -t 16.213029156 -s 2 -d -1 -p message -e 90 -c 2 -a 0 -i 38 -k MAC
h -t 16.213029156 -s 2 -d -1 -p message -e 90 -c 2 -a 0 -i 38 -k MAC
r -t 16.213749861 -s 4 -d -1 -p message -e 32 -c 2 -a 0 -i 38 -k MAC
r -t 16.213774861 -s 4 -d -1 -p message -e 32 -c 2 -a 0 -i 38 -k RTR
n -t 22.000000 -s 0 -x 428.322777 -y 487.711557 -U -8.985543 -V -4.388624 -T 28.280134
+ -t 24.581023218 -s 4 -d -1 -p message -e 32 -c 2 -a 0 -i 39 -k RTR 
- -t 24.581023218 -s 4 -d -1 -p message -e 32 -c 2 -a 0 -i 39 -k RTR
h -t 24.581023218 -s 4 -d -1 -p message -e 32 -c 2 -a 0 -i 39 -k RTR
+ -t 24.581618218 -s 4 -d -1 -p message -e 90 -c 2 -a 0 -i 39 -k MAC 
- -t 24.581618218 -s 4 -d -1 -p message -e 90 -c 2 -a 0 -i 39 -k MAC
h -t 24.581618218 -s 4 -d -1 -p message -e 90 -c 2 -a 0 -i 39 -k MAC
r -t 24.582338813 -s 0 -d -1 -p message -e 32 -c 2 -a 0 -i 39 -k MAC
r -t 24.582338923 -s 2 -d -1 -p message -e 32 -c 2 -a 0 -i 39 -k MAC
r -t 24.582363813 -s 0 -d -1 -p message -e 32 -c 2 -a 0 -i 39 -k RTR
r -t 24.582363923 -s 2 -d -1 -p message -e 32 -c 2 -a 0 -i 39 -k RTR
+ -t 24.887542302 -s 7 -d -1 -p message -e 68 -c 2 -a 0 -i 40 -k RTR 
- -t 24.887542302 -s 7 -d -1 -p message -e 68 -c 2 -a 0 -i 40 -k RTR
h -t 24.887542302 -s 7 -d -1 -p message -e 68 -c 2 -a 0 -i 40 -k RTR
+ -t 24.887717302 -s 7 -d -1 -p message -e 126 -c 2 -a 0 -i 40 -k MAC 
- -t 24.887717302 -s 7 -d -1 -p message -e 126 -c 2 -a 0 -i 40 -k MAC
h -t 24.887717302 -s 7 -d -1 -p message -e 126 -c 2 -a 0 -i 40 -k MAC
r -t 24.888725505 -s 1 -d -1 -p message -e 68 -c 2 -a 0 -i 40 -k MAC
r -t 24.888725533 -s 3 -d -1 -p message -e 68 -c 2 -a 0 -i 40 -k MAC
r -t 24.888725562 -s 9 -d -1 -p message -e 68 -c 2 -a 0 -i 40 -k MAC
r -t 24.888725588 -s 6 -d -1 -p message -e 68 -c 2 -a 0 -i 40 -k MAC
r -t 24.888750505 -s 1 -d -1 -p message -e 68 -c 2 -a 0 -i 40 -k RTR
r -t 24.888750533 -s 3 -d -1 -p message -e 68 -c 2 -a 0 -i 40 -k RTR
r -t 24.888750562 -s 9 -d -1 -p message -e 68 -c 2 -a 0 -i 40 -k RTR
r -t 24.888750588 -s 6 -d -1 -p message -e 68 -c 2 -a 0 -i 40 -k RTR
+ -t 25.585904864 -s 8 -d -1 -p message -e 44 -c 2 -a 0 -i 41 -k RTR 
- -t 25.585904864 -s 8 -d -1 -p message -e 44 -c 2 -a 0 -i 41 -k RTR
h -t 25.585904864 -s 8 -d -1 -p message -e 44 -c 2 -a 0 -i 41 -k RTR
+ -t 25.586467782 -s 4 -d -1 -p message -e 56 -c 2 -a 0 -i 42 -k RTR 
- -t 25.586467782 -s 4 -d -1 -p message -e 56 -c 2 -a 0 -i 42 -k RTR