s 0.086530504 _4_ RTR  --- 0 message 32 [0 0 0 0] ------- [4:255 -1:255 32 0] 
s 0.086805504 _4_ MAC  --- 0 message 90 [0 ffffffff 4 800] ------- [4:255 -1:255 32 0] 
r 0.087526209 _2_ MAC  --- 0 message 32 [0 ffffffff 4 800] ------- [4:255 -1:255 32 0] 
r 0.087551209 _2_ RTR  --- 0 message 32 [0 ffffffff 4 800] ------- [4:255 -1:255 32 0] 
s 0.231703354 _6_ RTR  --- 1 message 32 [0 0 0 0] ------- [6:255 -1:255 32 0] 
s 0.232218354 _6_ MAC  --- 1 message 90 [0 ffffffff 6 800] ------- [6:255 -1:255 32 0] 
r 0.232938460 _1_ MAC  --- 1 message 32 [0 ffffffff 6 800] ------- [6:255 -1:255 32 0] 
r 0.232938489 _3_ MAC  --- 1 message 32 [0 ffffffff 6 800] ------- [6:255 -1:255 32 0] 
r 0.232938640 _7_ MAC  --- 1 message 32 [0 ffffffff 6 800] ------- [6:255 -1:255 32 0] 
r 0.232938884 _9_ MAC  --- 1 message 32 [0 ffffffff 6 800] ------- [6:255 -1:255 32 0] 
r 0.232963460 _1_ RTR  --- 1 message 32 [0 ffffffff 6 800] ------- [6:255 -1:255 32 0] 
r 0.232963489 _3_ RTR  --- 1 message 32 [0 ffffffff 6 800] ------- [6:255 -1:255 32 0] 
r 0.232963640 _7_ RTR  --- 1 message 32 [0 ffffffff 6 800] ------- [6:255 -1:255 32 0] 
r 0.232963884 _9_ RTR  --- 1 message 32 [0 ffffffff 6 800] ------- [6:255 -1:255 32 0] 
s 0.336911486 _3_ RTR  --- 2 message 32 [0 0 0 0] ------- [3:255 -1:255 32 0] 
s 0.337526486 _3_ MAC  --- 2 message 90 [0 ffffffff 3 800] ------- [3:255 -1:255 32 0] 
r 0.338246621 _6_ MAC  --- 2 message 32 [0 ffffffff 3 800] ------- [3:255 -1:255 32 0] 
r 0.338246649 _1_ MAC  --- 2 message 32 [0 ffffffff 3 800] ------- [3:255 -1:255 32 0] 
r 0.338246717 _7_ MAC  --- 2 message 32 [0 ffffffff 3 800] ------- [3:255 -1:255 32 0] 
r 0.338246920 _9_ MAC  --- 2 message 32 [0 ffffffff 3 800] ------- [3:255 -1:255 32 0] 
r 0.338271621 _6_ RTR  --- 2 message 32 [0 ffffffff 3 800] ------- [3:255 -1:255 32 0] 
r 0.338271649 _1_ RTR  --- 2 message 32 [0 ffffffff 3 800] ------- [3:255 -1:255 32 0] 
r 0.338271717 _7_ RTR  --- 2 message 32 [0 ffffffff 3 800] ------- [3:255 -1:255 32 0] 
r 0.338271920 _9_ RTR  --- 2 message 32 [0 ffffffff 3 800] ------- [3:255 -1:255 32 0] 
s 0.358121573 _9_ RTR  --- 3 message 32 [0 0 0 0] ------- [9:255 -1:255 32 0] 
s 0.358556573 _9_ MAC  --- 3 message 90 [0 ffffffff 9 800] ------- [9:255 -1:255 32 0] 
r 0.359276834 _7_ MAC  --- 3 message 32 [0 ffffffff 9 800] ------- [9:255 -1:255 32 0] 
r 0.359277007 _3_ MAC  --- 3 message 32 [0 ffffffff 9 800] ------- [9:255 -1:255 32 0] 
r 0.359277034 _1_ MAC  --- 3 message 32 [0 ffffffff 9 800] ------- [9:255 -1:255 32 0] 
r 0.359277103 _6_ MAC  --- 3 message 32 [0 ffffffff 9 800] ------- [9:255 -1:255 32 0] 
r 0.359301834 _7_ RTR  --- 3 message 32 [0 ffffffff 9 800] ------- [9:255 -1:255 32 0] 
r 0.359302007 _3_ RTR  --- 3 message 32 [0 ffffffff 9 800] ------- [9:255 -1:255 32 0] 
r 0.359302034 _1_ RTR  --- 3 message 32 [0 ffffffff 9 800] ------- [9:255 -1:255 32 0] 
r 0.359302103 _6_ RTR  --- 3 message 32 [0 ffffffff 9 800] ------- [9:255 -1:255 32 0] 
s 0.622213306 _1_ RTR  --- 4 message 32 [0 0 0 0] ------- [1:255 -1:255 32 0] 
s 0.622488306 _1_ MAC  --- 4 message 90 [0 ffffffff 1 800] ------- [1:255 -1:255 32 0] 
r 0.623208413 _6_ MAC  --- 4 message 32 [0 ffffffff 1 800] ------- [1:255 -1:255 32 0] 
r 0.623208470 _3_ MAC  --- 4 message 32 [0 ffffffff 1 800] ------- [1:255 -1:255 32 0] 
r 0.623208510 _7_ MAC  --- 4 message 32 [0 ffffffff 1 800] ------- [1:255 -1:255 32 0] 
r 0.623208767 _9_ MAC  --- 4 message 32 [0 ffffffff 1 800] ------- [1:255 -1:255 32 0] 
r 0.623233413 _6_ RTR  --- 4 message 32 [0 ffffffff 1 800] ------- [1:255 -1:255 32 0] 
r 0.623233470 _3_ RTR  --- 4 message 32 [0 ffffffff 1 800] ------- [1:255 -1:255 32 0] 
r 0.623233510 _7_ RTR  --- 4 message 32 [0 ffffffff 1 800] ------- [1:255 -1:255 32 0] 
r 0.623233767 _9_ RTR  --- 4 message 32 [0 ffffffff 1 800] ------- [1:255 -1:255 32 0] 
s 0.856187908 _8_ RTR  --- 5 message 32 [0 0 0 0] ------- [8:255 -1:255 32 0] 
s 0.856462908 _8_ MAC  --- 5 message 90 [0 ffffffff 8 800] ------- [8:255 -1:255 32 0] 
r 0.857183562 _0_ MAC  --- 5 message 32 [0 ffffffff 8 800] ------- [8:255 -1:255 32 0] 
r 0.857208562 _0_ RTR  --- 5 message 32 [0 ffffffff 8 800] ------- [8:255 -1:255 32 0] 
s 1.278314313 _0_ RTR  --- 6 message 32 [0 0 0 0] ------- [0:255 -1:255 32 0] 
s 1.278729313 _0_ MAC  --- 6 message 90 [0 ffffffff 0 800] ------- [0:255 -1:255 32 0] 
r 1.279449967 _8_ MAC  --- 6 message 32 [0 ffffffff 0 800] ------- [0:255 -1:255 32 0] 
r 1.279450006 _5_ MAC  --- 6 message 32 [0 ffffffff 0 800] ------- [0:255 -1:255 32 0] 
r 1.279474967 _8_ RTR  --- 6 message 32 [0 ffffffff 0 800] ------- [0:255 -1:255 32 0] 
r 1.279475006 _5_ RTR  --- 6 message 32 [0 ffffffff 0 800] ------- [0:255 -1:255 32 0] 
s 1.281366353 _5_ RTR  --- 7 message 32 [0 0 0 0] ------- [5:255 -1:255 32 0] 
s 1.281721353 _5_ MAC  --- 7 message 90 [0 ffffffff 5 800] ------- [5:255 -1:255 32 0] 
r 1.282442047 _0_ MAC  --- 7 message 32 [0 ffffffff 5 800] ------- [5:255 -1:255 32 0] 
r 1.282467047 _0_ RTR  --- 7 message 32 [0 ffffffff 5 800] ------- [5:255 -1:255 32 0] 
s 1.678095294 _2_ RTR  --- 8 message 32 [0 0 0 0] ------- [2:255 -1:255 32 0] 
s 1.678490294 _2_ MAC  --- 8 message 90 [0 ffffffff 2 800] ------- [2:255 -1:255 32 0] 
r 1.679210999 _4_ MAC  --- 8 message 32 [0 ffffffff 2 800] ------- [2:255 -1:255 32 0] 
r 1.679235999 _4_ RTR  --- 8 message 32 [0 ffffffff 2 800] ------- [2:255 -1:255 32 0] 
s 1.723712268 _7_ RTR  --- 9 message 32 [0 0 0 0] ------- [7:255 -1:255 32 0] 
s 1.724087268 _7_ MAC  --- 9 message 90 [0 ffffffff 7 800] ------- [7:255 -1:255 32 0] 
r 1.724807471 _1_ MAC  --- 9 message 32 [0 ffffffff 7 800] ------- [7:255 -1:255 32 0] 
r 1.724807499 _3_ MAC  --- 9 message 32 [0 ffffffff 7 800] ------- [7:255 -1:255 32 0] 
r 1.724807528 _9_ MAC  --- 9 message 32 [0 ffffffff 7 800] ------- [7:255 -1:255 32 0] 
r 1.724807554 _6_ MAC  --- 9 message 32 [0 ffffffff 7 800] ------- [7:255 -1:255 32 0] 
r 1.724832471 _1_ RTR  --- 9 message 32 [0 ffffffff 7 800] ------- [7:255 -1:255 32 0] 
r 1.724832499 _3_ RTR  --- 9 message 32 [0 ffffffff 7 800] ------- [7:255 -1:255 32 0] 
r 1.724832528 _9_ RTR  --- 9 message 32 [0 ffffffff 7 800] ------- [7:255 -1:255 32 0] 
r 1.724832554 _6_ RTR  --- 9 message 32 [0 ffffffff 7 800] ------- [7:255 -1:255 32 0] 
s 10.000000000 _1_ AGT  --- 10 tcp 40 [0 0 0 0] ------- [1:0 0:0 32 0] [0 0] 0 0
r 10.000000000 _1_ RTR  --- 10 tcp 40 [0 0 0 0] ------- [1:0 0:0 32 0] [0 0] 0 0
s 10.000000000 _2_ AGT  --- 11 tcp 40 [0 0 0 0] ------- [2:0 0:0 32 0] [0 0] 0 0
r 10.000000000 _2_ RTR  --- 11 tcp 40 [0 0 0 0] ------- [2:0 0:0 32 0] [0 0] 0 0
s 10.000000000 _3_ AGT  --- 12 tcp 40 [0 0 0 0] ------- [3:0 0:0 32 0] [0 0] 0 0
r 10.000000000 _3_ RTR  --- 12 tcp 40 [0 0 0 0] ------- [3:0 0:0 32 0] [0 0] 0 0
s 10.000000000 _4_ AGT  --- 13 tcp 40 [0 0 0 0] ------- [4:0 0:0 32 0] [0 0] 0 0
r 10.000000000 _4_ RTR  --- 13 tcp 40 [0 0 0 0] ------- [4:0 0:0 32 0] [0 0] 0 0
s 10.000000000 _5_ AGT  --- 14 tcp 40 [0 0 0 0] ------- [5:0 0:0 32 0] [0 0] 0 0
r 10.000000000 _5_ RTR  --- 14 tcp 40 [0 0 0 0] ------- [5:0 0:0 32 0] [0 0] 0 0
s 10.000000000 _5_ RTR  --- 14 tcp 60 [0 0 0 0] ------- [5:0 0:0 32 0] [0 0] 0 0
s 10.000000000 _6_ AGT  --- 15 tcp 40 [0 0 0 0] ------- [6:0 0:0 32 0] [0 0] 0 0
r 10.000000000 _6_ RTR  --- 15 tcp 40 [0 0 0 0] ------- [6:0 0:0 32 0] [0 0] 0 0
s 10.000000000 _7_ AGT  --- 16 tcp 40 [0 0 0 0] ------- [7:0 0:0 32 0] [0 0] 0 0
r 10.000000000 _7_ RTR  --- 16 tcp 40 [0 0 0 0] ------- [7:0 0:0 32 0] [0 0] 0 0
s 10.000000000 _8_ AGT  --- 17 tcp 40 [0 0 0 0] ------- [8:0 0:0 32 0] [0 0] 0 0
r 10.000000000 _8_ RTR  --- 17 tcp 40 [0 0 0 0] ------- [8:0 0:0 32 0] [0 0] 0 0
s 10.000000000 _8_ RTR  --- 17 tcp 60 [0 0 0 0] ------- [8:0 0:0 32 0] [0 0] 0 0
s 10.000000000 _9_ AGT  --- 18 tcp 40 [0 0 0 0] ------- [9:0 0:0 32 0] [0 0] 0 0
r 10.000000000 _9_ RTR  --- 18 tcp 40 [0 0 0 0] ------- [9:0 0:0 32 0] [0 0] 0 0
s 10.000295000 _5_ MAC  --- 0 ARP 86 [0 ffffffff 5 806] ------- [REQUEST 5/5 0/0]
r 10.000983694 _0_ MAC  --- 0 ARP 28 [0 ffffffff 5 806] ------- [REQUEST 5/5 0/0]
s 10.001058694 _0_ MAC  --- 0 RTS 44 [52e 5 0 0] 
r 10.001411387 _5_ MAC  --- 0 RTS 44 [52e 5 0 0] 
s 10.001421387 _5_ MAC  --- 0 CTS 38 [3f4 0 0 0] 
r 10.001726081 _0_ MAC  --- 0 CTS 38 [3f4 0 0 0] 
s 10.001736081 _0_ MAC  --- 0 ARP 86 [13a 5 0 806] ------- [REPLY 0/0 5/5]
r 10.002424774 _5_ MAC  --- 0 ARP 28 [13a 5 0 806] ------- [REPLY 0/0 5/5]
s 10.002434774 _5_ MAC  --- 0 ACK 38 [0 0 0 0] 
r 10.002739468 _0_ MAC  --- 0 ACK 38 [0 0 0 0] 
s 10.003048774 _5_ MAC  --- 0 RTS 44 [62e 0 5 0] 
r 10.003401468 _0_ MAC  --- 0 RTS 44 [62e 0 5 0] 
s 10.003411468 _0_ MAC  --- 0 CTS 38 [4f4 5 0 0] 
r 10.003716162 _5_ MAC  --- 0 CTS 38 [4f4 5 0 0] 
s 10.003726162 _5_ MAC  --- 14 tcp 118 [13a 0 5 800] ------- [5:0 0:0 32 0] [0 0] 0 0
r 10.004670855 _0_ MAC  --- 14 tcp 60 [13a 0 5 800] ------- [5:0 0:0 32 0] [0 0] 1 0
s 10.004680855 _0_ MAC  --- 0 ACK 38 [0 5 0 0] 
r 10.004695855 _0_ AGT  --- 14 tcp 60 [13a 0 5 800] ------- [5:0 0:0 32 0] [0 0] 1 0
s 10.004695855 _0_ AGT  --- 19 ack 40 [0 0 0 0] ------- [0:0 9:0 32 0] [0 0] 0 0
r 10.004695855 _0_ RTR  --- 19 ack 40 [0 0 0 0] ------- [0:0 9:0 32 0] [0 0] 0 0
r 10.004985549 _5_ MAC  --- 0 ACK 38 [0 5 0 0] 
s 10.005145465 _8_ MAC  --- 0 ARP 86 [0 ffffffff 8 806] ------- [REQUEST 8/8 0/0]
r 10.005834119 _0_ MAC  --- 0 ARP 28 [0 ffffffff 8 806] ------- [REQUEST 8/8 0/0]
s 10.006004119 _0_ MAC  --- 0 RTS 44 [52e 8 0 0] 
r 10.006356773 _8_ MAC  --- 0 RTS 44 [52e 8 0 0] 
s 10.006366773 _8_ MAC  --- 0 CTS 38 [3f4 0 0 0] 
r 10.006671427 _0_ MAC  --- 0 CTS 38 [3f4 0 0 0] 
s 10.006681427 _0_ MAC  --- 0 ARP 86 [13a 8 0 806] ------- [REPLY 0/0 8/8]
r 10.007370081 _8_ MAC  --- 0 ARP 28 [13a 8 0 806] ------- [REPLY 0/0 8/8]
s 10.007380081 _8_ MAC  --- 0 ACK 38 [0 0 0 0] 
r 10.007684735 _0_ MAC  --- 0 ACK 38 [0 0 0 0] 
s 10.008034081 _8_ MAC  --- 0 RTS 44 [62e 0 8 0] 
r 10.008386735 _0_ MAC  --- 0 RTS 44 [62e 0 8 0] 
s 10.008396735 _0_ MAC  --- 0 CTS 38 [4f4 8 0 0] 
r 10.008701389 _8_ MAC  --- 0 CTS 38 [4f4 8 0 0] 
s 10.008711389 _8_ MAC  --- 17 tcp 118 [13a 0 8 800] ------- [8:0 0:0 32 0] [0 0] 0 0
r 10.009656043 _0_ MAC  --- 17 tcp 60 [13a 0 8 800] ------- [8:0 0:0 32 0] [0 0] 1 0
s 10.009666043 _0_ MAC  --- 0 ACK 38 [0 8 0 0] 
r 10.009681043 _0_ AGT  --- 17 tcp 60 [13a 0 8 800] ------- [8:0 0:0 32 0] [0 0] 1 0
s 10.009681043 _0_ AGT  --- 20 ack 40 [0 0 0 0] ------- [0:0 9:0 32 0] [0 0] 0 0
r 10.009681043 _0_ RTR  --- 20 ack 40 [0 0 0 0] ------- [0:0 9:0 32 0] [0 0] 0 0
r 10.009970697 _8_ MAC  --- 0 ACK 38 [0 8 0 0] 
s 12.096202264 _2_ RTR  --- 21 message 32 [0 0 0 0] ------- [2:255 -1:255 32 0] 
s 12.096477264 _2_ MAC  --- 21 message 90 [0 ffffffff 2 800] ------- [2:255 -1:255 32 0] 
r 12.097197969 _4_ MAC  --- 21 message 32 [0 ffffffff 2 800] ------- [2:255 -1:255 32 0] 
r 12.097222969 _4_ RTR  --- 21 message 32 [0 ffffffff 2 800] ------- [2:255 -1:255 32 0] 
s 12.233845491 _3_ RTR  --- 23 message 32 [0 0 0 0] ------- [3:255 -1:255 32 0] 
s 12.234260491 _3_ MAC  --- 23 message 90 [0 ffffffff 3 800] ------- [3:255 -1:255 32 0] 
r 12.234980626 _6_ MAC  --- 23 message 32 [0 ffffffff 3 800] ------- [3:255 -1:255 32 0] 
r 12.234980654 _1_ MAC  --- 23 message 32 [0 ffffffff 3 800] ------- [3:255 -1:255 32 0] 
r 12.234980722 _7_ MAC  --- 23 message 32 [0 ffffffff 3 800] ------- [3:255 -1:255 32 0] 
r 12.234980925 _9_ MAC  --- 23 message 32 [0 ffffffff 3 800] ------- [3:255 -1:255 32 0] 
r 12.235005626 _6_ RTR  --- 23 message 32 [0 ffffffff 3 800] ------- [3:255 -1:255 32 0] 
r 12.235005654 _1_ RTR  --- 23 message 32 [0 ffffffff 3 800] ------- [3:255 -1:255 32 0] 
r 12.235005722 _7_ RTR  --- 23 message 32 [0 ffffffff 3 800] ------- [3:255 -1:255 32 0] 
r 12.235005925 _9_ RTR  --- 23 message 32 [0 ffffffff 3 800] ------- [3:255 -1:255 32 0] 
s 12.237175661 _1_ RTR  --- 22 message 32 [0 0 0 0] ------- [1:255 -1:255 32 0] 
s 12.237370661 _1_ MAC  --- 22 message 90 [0 ffffffff 1 800] ------- [1:255 -1:255 32 0] 
r 12.238090767 _6_ MAC  --- 22 message 32 [0 ffffffff 1 800] ------- [1:255 -1:255 32 0] 
r 12.238090824 _3_ MAC  --- 22 message 32 [0 ffffffff 1 800] ------- [1:255 -1:255 32 0] 
r 12.238090864 _7_ MAC  --- 22 message 32 [0 ffffffff 1 800] ------- [1:255 -1:255 32 0] 
r 12.238091122 _9_ MAC  --- 22 message 32 [0 ffffffff 1 800] ------- [1:255 -1:255 32 0] 
r 12.238115767 _6_ RTR  --- 22 message 32 [0 ffffffff 1 800] ------- [1:255 -1:255 32 0] 
r 12.238115824 _3_ RTR  --- 22 message 32 [0 ffffffff 1 800] ------- [1:255 -1:255 32 0] 
r 12.238115864 _7_ RTR  --- 22 message 32 [0 ffffffff 1 800] ------- [1:255 -1:255 32 0] 
r 12.238116122 _9_ RTR  --- 22 message 32 [0 ffffffff 1 800] ------- [1:255 -1:255 32 0] 
s 12.241107642 _7_ RTR  --- 24 message 32 [0 0 0 0] ------- [7:255 -1:255 32 0] 
s 12.241762642 _7_ MAC  --- 24 message 90 [0 ffffffff 7 800] ------- [7:255 -1:255 32 0] 
s 12.241992361 _9_ RTR  --- 25 message 32 [0 0 0 0] ------- [9:255 -1:255 32 0] 
r 12.242482845 _1_ MAC  --- 24 message 32 [0 ffffffff 7 800] ------- [7:255 -1:255 32 0] 
r 12.242482873 _3_ MAC  --- 24 message 32 [0 ffffffff 7 800] ------- [7:255 -1:255 32 0] 
r 12.242482902 _9_ MAC  --- 24 message 32 [0 ffffffff 7 800] ------- [7:255 -1:255 32 0] 
r 12.242482928 _6_ MAC  --- 24 message 32 [0 ffffffff 7 800] ------- [7:255 -1:255 32 0] 
r 12.242507845 _1_ RTR  --- 24 message 32 [0 ffffffff 7 800] ------- [7:255 -1:255 32 0] 
r 12.242507873 _3_ RTR  --- 24 message 32 [0 ffffffff 7 800] ------- [7:255 -1:255 32 0] 
r 12.242507902 _9_ RTR  --- 24 message 32 [0 ffffffff 7 800] ------- [7:255 -1:255 32 0] 
r 12.242507928 _6_ RTR  --- 24 message 32 [0 ffffffff 7 800] ------- [7:255 -1:255 32 0] 
s 12.242652902 _9_ MAC  --- 25 message 90 [0 ffffffff 9 800] ------- [9:255 -1:255 32 0] 
r 12.243373162 _7_ MAC  --- 25 message 32 [0 ffffffff 9 800] ------- [9:255 -1:255 32 0] 
r 12.243373336 _3_ MAC  --- 25 message 32 [0 ffffffff 9 800] ------- [9:255 -1:255 32 0] 
r 12.243373363 _1_ MAC  --- 25 message 32 [0 ffffffff 9 800] ------- [9:255 -1:255 32 0] 
r 12.243373432 _6_ MAC  --- 25 message 32 [0 ffffffff 9 800] ------- [9:255 -1:255 32 0] 
r 12.243398162 _7_ RTR  --- 25 message 32 [0 ffffffff 9 800] ------- [9:255 -1:255 32 0] 
r 12.243398336 _3_ RTR  --- 25 message 32 [0 ffffffff 9 800] ------- [9:255 -1:255 32 0] 
r 12.243398363 _1_ RTR  --- 25 message 32 [0 ffffffff 9 800] ------- [9:255 -1:255 32 0] 
r 12.243398432 _6_ RTR  --- 25 message 32 [0 ffffffff 9 800] ------- [9:255 -1:255 32 0] 
s 12.285490136 _1_ RTR  --- 26 message 44 [0 0 0 0] ------- [1:255 -1:255 32 0] 
s 12.285865136 _1_ MAC  --- 26 message 102 [0 ffffffff 1 800] ------- [1:255 -1:255 32 0] 
r 12.286681242 _6_ MAC  --- 26 message 44 [0 ffffffff 1 800] ------- [1:255 -1:255 32 0] 
r 12.286681299 _3_ MAC  --- 26 message 44 [0 ffffffff 1 800] ------- [1:255 -1:255 32 0] 
r 12.286681339 _7_ MAC  --- 26 message 44 [0 ffffffff 1 800] ------- [1:255 -1:255 32 0] 
r 12.286681597 _9_ MAC  --- 26 message 44 [0 ffffffff 1 800] ------- [1:255 -1:255 32 0] 
r 12.286706242 _6_ RTR  --- 26 message 44 [0 ffffffff 1 800] ------- [1:255 -1:255 32 0] 
r 12.286706299 _3_ RTR  --- 26 message 44 [0 ffffffff 1 800] ------- [1:255 -1:255 32 0] 
r 12.286706339 _7_ RTR  --- 26 message 44 [0 ffffffff 1 800] ------- [1:255 -1:255 32 0] 
r 12.286706597 _9_ RTR  --- 26 message 44 [0 ffffffff 1 800] ------- [1:255 -1:255 32 0] 
s 12.343732852 _6_ RTR  --- 27 message 32 [0 0 0 0] ------- [6:255 -1:255 32 0] 
s 12.343847852 _6_ MAC  --- 27 message 90 [0 ffffffff 6 800] ------- [6:255 -1:255 32 0] 
r 12.344567958 _1_ MAC  --- 27 message 32 [0 ffffffff 6 800] ------- [6:255 -1:255 32 0] 
r 12.344567987 _3_ MAC  --- 27 message 32 [0 ffffffff 6 800] ------- [6:255 -1:255 32 0] 
r 12.344568138 _7_ MAC  --- 27 message 32 [0 ffffffff 6 800] ------- [6:255 -1:255 32 0] 
r 12.344568382 _9_ MAC  --- 27 message 32 [0 ffffffff 6 800] ------- [6:255 -1:255 32 0] 
r 12.344592958 _1_ RTR  --- 27 message 32 [0 ffffffff 6 800] ------- [6:255 -1:255 32 0] 
r 12.344592987 _3_ RTR  --- 27 message 32 [0 ffffffff 6 800] ------- [6:255 -1:255 32 0] 
r 12.344593138 _7_ RTR  --- 27 message 32 [0 ffffffff 6 800] ------- [6:255 -1:255 32 0] 
r 12.344593382 _9_ RTR  --- 27 message 32 [0 ffffffff 6 800] ------- [6:255 -1:255 32 0] 
s 12.569095854 _0_ RTR  --- 28 message 32 [0 0 0 0] ------- [0:255 -1:255 32 0] 
s 12.569330854 _0_ MAC  --- 28 message 90 [0 ffffffff 0 800] ------- [0:255 -1:255 32 0] 
r 12.570051508 _8_ MAC  --- 28 message 32 [0 ffffffff 0 800] ------- [0:255 -1:255 32 0] 
r 12.570051547 _5_ MAC  --- 28 message 32 [0 ffffffff 0 800] ------- [0:255 -1:255 32 0] 
r 12.570076508 _8_ RTR  --- 28 message 32 [0 ffffffff 0 800] ------- [0:255 -1:255 32 0] 
r 12.570076547 _5_ RTR  --- 28 message 32 [0 ffffffff 0 800] ------- [0:255 -1:255 32 0] 
s 13.000000000 _1_ AGT  --- 29 tcp 40 [0 0 0 0] ------- [1:0 0:0 32 0] [0 0] 0 0
r 13.000000000 _1_ RTR  --- 29 tcp 40 [0 0 0 0] ------- [1:0 0:0 32 0] [0 0] 0 0
s 13.000000000 _2_ AGT  --- 30 tcp 40 [0 0 0 0] ------- [2:0 0:0 32 0] [0 0] 0 0
r 13.000000000 _2_ RTR  --- 30 tcp 40 [0 0 0 0] ------- [2:0 0:0 32 0] [0 0] 0 0
s 13.000000000 _3_ AGT  --- 31 tcp 40 [0 0 0 0] ------- [3:0 0:0 32 0] [0 0] 0 0
r 13.000000000 _3_ RTR  --- 31 tcp 40 [0 0 0 0] ------- [3:0 0:0 32 0] [0 0] 0 0
s 13.000000000 _4_ AGT  --- 32 tcp 40 [0 0 0 0] ------- [4:0 0:0 32 0] [0 0] 0 0
r 13.000000000 _4_ RTR  --- 32 tcp 40 [0 0 0 0] ------- [4:0 0:0 32 0] [0 0] 0 0
s 13.000000000 _5_ AGT  --- 33 tcp 40 [0 0 0 0] ------- [5:0 0:0 32 0] [0 0] 0 0
r 13.000000000 _5_ RTR  --- 33 tcp 40 [0 0 0 0] ------- [5:0 0:0 32 0] [0 0] 0 0
s 13.000000000 _5_ RTR  --- 33 tcp 60 [0 0 0 0] ------- [5:0 0:0 32 0] [0 0] 0 0
s 13.000000000 _6_ AGT  --- 34 tcp 40 [0 0 0 0] ------- [6:0 0:0 32 0] [0 0] 0 0
r 13.000000000 _6_ RTR  --- 34 tcp 40 [0 0 0 0] ------- [6:0 0:0 32 0] [0 0] 0 0
s 13.000000000 _7_ AGT  --- 35 tcp 40 [0 0 0 0] ------- [7:0 0:0 32 0] [0 0] 0 0
r 13.000000000 _7_ RTR  --- 35 tcp 40 [0 0 0 0] ------- [7:0 0:0 32 0] [0 0] 0 0
s 13.000000000 _8_ AGT  --- 36 tcp 40 [0 0 0 0] ------- [8:0 0:0 32 0] [0 0] 0 0
r 13.000000000 _8_ RTR  --- 36 tcp 40 [0 0 0 0] ------- [8:0 0:0 32 0] [0 0] 0 0
s 13.000000000 _8_ RTR  --- 36 tcp 60 [0 0 0 0] ------- [8:0 0:0 32 0] [0 0] 0 0
s 13.000000000 _9_ AGT  --- 37 tcp 40 [0 0 0 0] ------- [9:0 0:0 32 0] [0 0] 0 0
r 13.000000000 _9_ RTR  --- 37 tcp 40 [0 0 0 0] ------- [9:0 0:0 32 0] [0 0] 0 0
s 13.000195000 _8_ MAC  --- 0 RTS 44 [62e 0 8 0] 
r 13.000547654 _0_ MAC  --- 0 RTS 44 [62e 0 8 0] 
s 13.000557654 _0_ MAC  --- 0 CTS 38 [4f4 8 0 0] 
r 13.000862308 _8_ MAC  --- 0 CTS 38 [4f4 8 0 0] 
s 13.000872308 _8_ MAC  --- 36 tcp 118 [13a 0 8 800] ------- [8:0 0:0 32 0] [0 0] 0 0
r 13.001816962 _0_ MAC  --- 36 tcp 60 [13a 0 8 800] ------- [8:0 0:0 32 0] [0 0] 1 0
s 13.001826962 _0_ MAC  --- 0 ACK 38 [0 8 0 0] 
r 13.001841962 _0_ AGT  --- 36 tcp 60 [13a 0 8 800] ------- [8:0 0:0 32 0] [0 0] 1 0
s 13.001841962 _0_ AGT  --- 38 ack 40 [0 0 0 0] ------- [0:0 9:0 32 0] [0 0] 0 0
r 13.001841962 _0_ RTR  --- 38 ack 40 [0 0 0 0] ------- [0:0 9:0 32 0] [0 0] 0 0
r 13.002131616 _8_ MAC  --- 0 ACK 38 [0 8 0 0] 
s 13.002511611 _5_ MAC  --- 0 RTS 44 [62e 0 5 0] 
r 13.002864305 _0_ MAC  --- 0 RTS 44 [62e 0 5 0] 
s 13.002874305 _0_ MAC  --- 0 CTS 38 [4f4 5 0 0] 
r 13.003178998 _5_ MAC  --- 0 CTS 38 [4f4 5 0 0] 
s 13.003188998 _5_ MAC  --- 33 tcp 118 [13a 0 5 800] ------- [5:0 0:0 32 0] [0 0] 0 0
r 13.004133692 _0_ MAC  --- 33 tcp 60 [13a 0 5 800] ------- [5:0 0:0 32 0] [0 0] 1 0
s 13.004143692 _0_ MAC  --- 0 ACK 38 [0 5 0 0] 
r 13.004158692 _0_ AGT  --- 33 tcp 60 [13a 0 5 800] ------- [5:0 0:0 32 0] [0 0] 1 0
s 13.004158692 _0_ AGT  --- 39 ack 40 [0 0 0 0] ------- [0:0 9:0 32 0] [0 0] 0 0
r 13.004158692 _0_ RTR  --- 39 ack 40 [0 0 0 0] ------- [0:0 9:0 32 0] [0 0] 0 0
r 13.004448385 _5_ MAC  --- 0 ACK 38 [0 5 0 0] 
s 13.076013264 _7_ RTR  --- 40 message 68 [0 0 0 0] ------- [7:255 -1:255 32 0] 
s 13.076448264 _7_ MAC  --- 40 message 126 [0 ffffffff 7 800] ------- [7:255 -1:255 32 0] 
r 13.077456468 _1_ MAC  --- 40 message 68 [0 ffffffff 7 800] ------- [7:255 -1:255 32 0] 
r 13.077456496 _3_ MAC  --- 40 message 68 [0 ffffffff 7 800] ------- [7:255 -1:255 32 0] 
r 13.077456525 _9_ MAC  --- 40 message 68 [0 ffffffff 7 800] ------- [7:255 -1:255 32 0] 
r 13.077456551 _6_ MAC  --- 40 message 68 [0 ffffffff 7 800] ------- [7:255 -1:255 32 0] 
r 13.077481468 _1_ RTR  --- 40 message 68 [0 ffffffff 7 800] ------- [7:255 -1:255 32 0] 
r 13.077481496 _3_ RTR  --- 40 message 68 [0 ffffffff 7 800] ------- [7:255 -1:255 32 0] 
r 13.077481525 _9_ RTR  --- 40 message 68 [0 ffffffff 7 800] ------- [7:255 -1:255 32 0] 
r 13.077481551 _6_ RTR  --- 40 message 68 [0 ffffffff 7 800] ------- [7:255 -1:255 32 0] 
s 13.233283298 _9_ RTR  --- 42 message 44 [0 0 0 0] ------- [9:255 -1:255 32 0] 
s 13.233678298 _9_ MAC  --- 42 message 102 [0 ffffffff 9 800] ------- [9:255 -1:255 32 0] 
r 13.234494559 _7_ MAC  --- 42 message 44 [0 ffffffff 9 800] ------- [9:255 -1:255 32 0] 
r 13.234494733 _3_ MAC  --- 42 message 44 [0 ffffffff 9 800] ------- [9:255 -1:255 32 0] 
r 13.234494759 _1_ MAC  --- 42 message 44 [0 ffffffff 9 800] ------- [9:255 -1:255 32 0] 
r 13.234494829 _6_ MAC  --- 42 message 44 [0 ffffffff 9 800] ------- [9:255 -1:255 32 0] 
r 13.234519559 _7_ RTR  --- 42 message 44 [0 ffffffff 9 800] ------- [9:255 -1:255 32 0] 
r 13.234519733 _3_ RTR  --- 42 message 44 [0 ffffffff 9 800] ------- [9:255 -1:255 32 0] 
r 13.234519759 _1_ RTR  --- 42 message 44 [0 ffffffff 9 800] ------- [9:255 -1:255 32 0] 
r 13.234519829 _6_ RTR  --- 42 message 44 [0 ffffffff 9 800] ------- [9:255 -1:255 32 0] 
s 13.234675679 _3_ RTR  --- 41 message 44 [0 0 0 0] ------- [3:255 -1:255 32 0] 
s 13.234770679 _3_ MAC  --- 41 message 102 [0 ffffffff 3 800] ------- [3:255 -1:255 32 0] 
r 13.235586815 _6_ MAC  --- 41 message 44 [0 ffffffff 3 800] ------- [3:255 -1:255 32 0] 
r 13.235586843 _1_ MAC  --- 41 message 44 [0 ffffffff 3 800] ------- [3:255 -1:255 32 0] 
r 13.235586911 _7_ MAC  --- 41 message 44 [0 ffffffff 3 800] ------- [3:255 -1:255 32 0] 
r 13.235587114 _9_ MAC  --- 41 message 44 [0 ffffffff 3 800] ------- [3:255 -1:255 32 0] 
r 13.235611815 _6_ RTR  --- 41 message 44 [0 ffffffff 3 800] ------- [3:255 -1:255 32 0] 
r 13.235611843 _1_ RTR  --- 41 message 44 [0 ffffffff 3 800] ------- [3:255 -1:255 32 0] 
r 13.235611911 _7_ RTR  --- 41 message 44 [0 ffffffff 3 800] ------- [3:255 -1:255 32 0] 
r 13.235612114 _9_ RTR  --- 41 message 44 [0 ffffffff 3 800] ------- [3:255 -1:255 32 0] 
s 13.282165000 _1_ RTR  --- 43 message 44 [0 0 0 0] ------- [1:255 -1:255 32 0] 
s 13.282240000 _1_ MAC  --- 43 message 102 [0 ffffffff 1 800] ------- [1:255 -1:255 32 0] 
r 13.283056106 _6_ MAC  --- 43 message 44 [0 ffffffff 1 800] ------- [1:255 -1:255 32 0] 
r 13.283056163 _3_ MAC  --- 43 message 44 [0 ffffffff 1 800] ------- [1:255 -1:255 32 0] 
r 13.283056203 _7_ MAC  --- 43 message 44 [0 ffffffff 1 800] ------- [1:255 -1:255 32 0] 
r 13.283056461 _9_ MAC  --- 43 message 44 [0 ffffffff 1 800] ------- [1:255 -1:255 32 0] 
r 13.283081106 _6_ RTR  --- 43 message 44 [0 ffffffff 1 800] ------- [1:255 -1:255 32 0] 
r 13.283081163 _3_ RTR  --- 43 message 44 [0 ffffffff 1 800] ------- [1:255 -1:255 32 0] 
r 13.283081203 _7_ RTR  --- 43 message 44 [0 ffffffff 1 800] ------- [1:255 -1:255 32 0] 
r 13.283081461 _9_ RTR  --- 43 message 44 [0 ffffffff 1 800] ------- [1:255 -1:255 32 0] 
s 13.342670765 _6_ RTR  --- 46 message 44 [0 0 0 0] ------- [6:255 -1:255 32 0] 
s 13.343345765 _6_ MAC  --- 46 message 102 [0 ffffffff 6 800] ------- [6:255 -1:255 32 0] 
r 13.344161872 _1_ MAC  --- 46 message 44 [0 ffffffff 6 800] ------- [6:255 -1:255 32 0] 
r 13.344161901 _3_ MAC  --- 46 message 44 [0 ffffffff 6 800] ------- [6:255 -1:255 32 0] 
r 13.344162052 _7_ MAC  --- 46 message 44 [0 ffffffff 6 800] ------- [6:255 -1:255 32 0] 
r 13.344162296 _9_ MAC  --- 46 message 44 [0 ffffffff 6 800] ------- [6:255 -1:255 32 0] 
r 13.344186872 _1_ RTR  --- 46 message 44 [0 ffffffff 6 800] ------- [6:255 -1:255 32 0] 
r 13.344186901 _3_ RTR  --- 46 message 44 [0 ffffffff 6 800] ------- [6:255 -1:255 32 0] 
r 13.344187052 _7_ RTR  --- 46 message 44 [0 ffffffff 6 800] ------- [6:255 -1:255 32 0] 
r 13.344187296 _9_ RTR  --- 46 message 44 [0 ffffffff 6 800] ------- [6:255 -1:255 32 0] 
s 13.423741249 _6_ RTR  --- 47 message 56 [0 0 0 0] ------- [6:255 -1:255 32 0] 
s 13.423876249 _6_ MAC  --- 47 message 114 [0 ffffffff 6 800] ------- [6:255 -1:255 32 0] 
r 13.424788355 _1_ MAC  --- 47 message 56 [0 ffffffff 6 800] ------- [6:255 -1:255 32 0] 
r 13.424788384 _3_ MAC  --- 47 message 56 [0 ffffffff 6 800] ------- [6:255 -1:255 32 0] 
r 13.424788535 _7_ MAC  --- 47 message 56 [0 ffffffff 6 800] ------- [6:255 -1:255 32 0] 
r 13.424788779 _9_ MAC  --- 47 message 56 [0 ffffffff 6 800] ------- [6:255 -1:255 32 0] 
r 13.424813355 _1_ RTR  --- 47 message 56 [0 ffffffff 6 800] ------- [6:255 -1:255 32 0] 
r 13.424813384 _3_ RTR  --- 47 message 56 [0 ffffffff 6 800] ------- [6:255 -1:255 32 0] 
r 13.424813535 _7_ RTR  --- 47 message 56 [0 ffffffff 6 800] ------- [6:255 -1:255 32 0] 
r 13.424813779 _9_ RTR  --- 47 message 56 [0 ffffffff 6 800] ------- [6:255 -1:255 32 0] 
s 13.572490879 _0_ RTR  --- 48 message 44 [0 0 0 0] ------- [0:255 -1:255 32 0] 
s 13.572585879 _0_ MAC  --- 48 message 102 [0 ffffffff 0 800] ------- [0:255 -1:255 32 0] 
r 13.573402533 _8_ MAC  --- 48 message 44 [0 ffffffff 0 800] ------- [0:255 -1:255 32 0] 
r 13.573402572 _5_ MAC  --- 48 message 44 [0 ffffffff 0 800] ------- [0:255 -1:255 32 0] 
r 13.573427533 _8_ RTR  --- 48 message 44 [0 ffffffff 0 800] ------- [0:255 -1:255 32 0] 
r 13.573427572 _5_ RTR  --- 48 message 44 [0 ffffffff 0 800] ------- [0:255 -1:255 32 0] 
s 13.684083740 _4_ RTR  --- 49 message 32 [0 0 0 0] ------- [4:255 -1:255 32 0] 
s 13.684538740 _4_ MAC  --- 49 message 90 [0 ffffffff 4 800] ------- [4:255 -1:255 32 0] 
r 13.685259445 _2_ MAC  --- 49 message 32 [0 ffffffff 4 800] ------- [4:255 -1:255 32 0] 
r 13.685284445 _2_ RTR  --- 49 message 32 [0 ffffffff 4 800] ------- [4:255 -1:255 32 0] 
s 14.148176873 _9_ RTR  --- 51 message 44 [0 0 0 0] ------- [9:255 -1:255 32 0] 
s 14.148791873 _9_ MAC  --- 51 message 102 [0 ffffffff 9 800] ------- [9:255 -1:255 32 0] 
r 14.149608133 _7_ MAC  --- 51 message 44 [0 ffffffff 9 800] ------- [9:255 -1:255 32 0] 
r 14.149608307 _3_ MAC  --- 51 message 44 [0 ffffffff 9 800] ------- [9:255 -1:255 32 0] 
r 14.149608334 _1_ MAC  --- 51 message 44 [0 ffffffff 9 800] ------- [9:255 -1:255 32 0] 
r 14.149608403 _6_ MAC  --- 51 message 44 [0 ffffffff 9 800] ------- [9:255 -1:255 32 0] 
r 14.149633133 _7_ RTR  --- 51 message 44 [0 ffffffff 9 800] ------- [9:255 -1:255 32 0] 
r 14.149633307 _3_ RTR  --- 51 message 44 [0 ffffffff 9 800] ------- [9:255 -1:255 32 0] 
r 14.149633334 _1_ RTR  --- 51 message 44 [0 ffffffff 9 800] ------- [9:255 -1:255 32 0] 
r 14.149633403 _6_ RTR  --- 51 message 44 [0 ffffffff 9 800] ------- [9:255 -1:255 32 0] 
s 14.279419234 _1_ RTR  --- 53 message 32 [0 0 0 0] ------- [1:255 -1:255 32 0] 
s 14.279734234 _1_ MAC  --- 53 message 90 [0 ffffffff 1 800] ------- [1:255 -1:255 32 0] 
r 14.280454340 _6_ MAC  --- 53 message 32 [0 ffffffff 1 800] ------- [1:255 -1:255 32 0] 
r 14.280454397 _3_ MAC  --- 53 message 32 [0 ffffffff 1 800] ------- [1:255 -1:255 32 0] 
r 14.280454437 _7_ MAC  --- 53 message 32 [0 ffffffff 1 800] ------- [1:255 -1:255 32 0] 
r 14.280454695 _9_ MAC  --- 53 message 32 [0 ffffffff 1 800] ------- [1:255 -1:255 32 0] 
r 14.280479340 _6_ RTR  --- 53 message 32 [0 ffffffff 1 800] ------- [1:255 -1:255 32 0] 
r 14.280479397 _3_ RTR  --- 53 message 32 [0 ffffffff 1 800] ------- [1:255 -1:255 32 0] 
r 14.280479437 _7_ RTR  --- 53 message 32 [0 ffffffff 1 800] ------- [1:255 -1:255 32 0] 
r 14.280479695 _9_ RTR  --- 53 message 32 [0 ffffffff 1 800] ------- [1:255 -1:255 32 0] 
s 14.367731204 _4_ RTR  --- 54 message 44 [0 0 0 0] ------- [4:255 -1:255 32 0] 
s 14.368346204 _4_ MAC  --- 54 message 102 [0 ffffffff 4 800] ------- [4:255 -1:255 32 0] 
r 14.369162909 _2_ MAC  --- 54 message 44 [0 ffffffff 4 800] ------- [4:255 -1:255 32 0] 
r 14.369187909 _2_ RTR  --- 54 message 44 [0 ffffffff 4 800] ------- [4:255 -1:255 32 0] 
s 14.728222303 _3_ RTR  --- 56 message 32 [0 0 0 0] ------- [3:255 -1:255 32 0] 
s 14.728517303 _3_ MAC  --- 56 message 90 [0 ffffffff 3 800] ------- [3:255 -1:255 32 0] 
r 14.729237439 _6_ MAC  --- 56 message 32 [0 ffffffff 3 800] ------- [3:255 -1:255 32 0] 
r 14.729237467 _1_ MAC  --- 56 message 32 [0 ffffffff 3 800] ------- [3:255 -1:255 32 0] 
r 14.729237534 _7_ MAC  --- 56 message 32 [0 ffffffff 3 800] ------- [3:255 -1:255 32 0] 
r 14.729237737 _9_ MAC  --- 56 message 32 [0 ffffffff 3 800] ------- [3:255 -1:255 32 0] 
r 14.729262439 _6_ RTR  --- 56 message 32 [0 ffffffff 3 800] ------- [3:255 -1:255 32 0] 
r 14.729262467 _1_ RTR  --- 56 message 32 [0 ffffffff 3 800] ------- [3:255 -1:255 32 0] 
r 14.729262534 _7_ RTR  --- 56 message 32 [0 ffffffff 3 800] ------- [3:255 -1:255 32 0] 
r 14.729262737 _9_ RTR  --- 56 message 32 [0 ffffffff 3 800] ------- [3:255 -1:255 32 0] 
s 15.041809020 _5_ RTR  --- 57 message 32 [0 0 0 0] ------- [5:255 -1:255 32 0] 
s 15.042404020 _5_ MAC  --- 57 message 90 [0 ffffffff 5 800] ------- [5:255 -1:255 32 0] 
r 15.043124714 _0_ MAC  --- 57 message 32 [0 ffffffff 5 800] ------- [5:255 -1:255 32 0] 
r 15.043149714 _0_ RTR  --- 57 message 32 [0 ffffffff 5 800] ------- [5:255 -1:255 32 0] 
s 15.650406785 _8_ RTR  --- 59 message 32 [0 0 0 0] ------- [8:255 -1:255 32 0] 
s 15.650861785 _8_ MAC  --- 59 message 90 [0 ffffffff 8 800] ------- [8:255 -1:255 32 0] 
r 15.651582439 _0_ MAC  --- 59 message 32 [0 ffffffff 8 800] ------- [8:255 -1:255 32 0] 
r 15.651607439 _0_ RTR  --- 59 message 32 [0 ffffffff 8 800] ------- [8:255 -1:255 32 0] 
s 16.211623788 _2_ RTR  --- 60 message 32 [0 0 0 0] ------- [2:255 -1:255 32 0] 
s 16.211818788 _2_ MAC  --- 60 message 90 [0 ffffffff 2 800] ------- [2:255 -1:255 32 0] 