n -t * -s 0  -x 550 -y 671 -Z 0 -z 20  -v circle -c black
n -t * -s 1  -x 175 -y 108 -Z 0 -z 20  -v circle -c black
n -t * -s 2  -x 532 -y 157 -Z 0 -z 20  -v circle -c black
n -t * -s 3  -x 165 -y 60 -Z 0 -z 20  -v circle -c black
n -t * -s 4  -x 547 -y 368 -Z 0 -z 20  -v circle -c black
n -t * -s 5  -x 726 -y 560 -Z 0 -z 20  -v circle -c black
n -t * -s 6  -x 197 -y 85 -Z 0 -z 20  -v circle -c black
n -t * -s 7  -x 114 -y 107 -Z 0 -z 20  -v circle -c black
n -t * -s 8  -x 354 -y 680 -Z 0 -z 20  -v circle -c black
n -t * -s 9  -x 38 -y 89 -Z 0 -z 20  -v circle -c black
V -t * -v 1.0a5 -a 0
W -t * -x 750 -y 750
A -t * -n 1 -p 0 -o 0x7fffffff -c 30 -a 1
A -t * -h 1 -m 1073741823 -s 0
+ -t 0.086530504 -s 4 -d -1 -p message -e 32 -c 2 -a 0 -i 0 -k RTR 
- -t 0.086530504 -s 4 -d -1 -p message -e 32 -c 2 -a 0 -i 0 -k RTR
h -t 0.086530504 -s 4 -d -1 -p message -e 32 -c 2 -a 0 -i 0 -k RTR
+ -t 0.086805504 -s 4 -d -1 -p message -e 90 -c 2 -a 0 -i 0 -k MAC 
- -t 0.086805504 -s 4 -d -1 -p message -e 90 -c 2 -a 0 -i 0 -k MAC
h -t 0.086805504 -s 4 -d -1 -p message -e 90 -c 2 -a 0 -i 0 -k MAC
r -t 0.087526209 -s 2 -d -1 -p message -e 32 -c 2 -a 0 -i 0 -k MAC
r -t 0.087551209 -s 2 -d -1 -p message -e 32 -c 2 -a 0 -i 0 -k RTR
+ -t 0.231703354 -s 6 -d -1 -p message -e 32 -c 2 -a 0 -i 1 -k RTR 
- -t 0.231703354 -s 6 -d -1 -p message -e 32 -c 2 -a 0 -i 1 -k RTR
h -t 0.231703354 -s 6 -d -1 -p message -e 32 -c 2 -a 0 -i 1 -k RTR
+ -t 0.232218354 -s 6 -d -1 -p message -e 90 -c 2 -a 0 -i 1 -k MAC 
- -t 0.232218354 -s 6 -d -1 -p message -e 90 -c 2 -a 0 -i 1 -k MAC
h -t 0.232218354 -s 6 -d -1 -p message -e 90 -c 2 -a 0 -i 1 -k MAC
r -t 0.232938460 -s 1 -d -1 -p message -e 32 -c 2 -a 0 -i 1 -k MAC
r -t 0.232938489 -s 3 -d -1 -p message -e 32 -c 2 -a 0 -i 1 -k MAC
r -t 0.232938640 -s 7 -d -1 -p message -e 32 -c 2 -a 0 -i 1 -k MAC
r -t 0.232938884 -s 9 -d -1 -p message -e 32 -c 2 -a 0 -i 1 -k MAC
r -t 0.232963460 -s 1 -d -1 -p message -e 32 -c 2 -a 0 -i 1 -k RTR
r -t 0.232963489 -s 3 -d -1 -p message -e 32 -c 2 -a 0 -i 1 -k RTR
r -t 0.232963640 -s 7 -d -1 -p message -e 32 -c 2 -a 0 -i 1 -k RTR
r -t 0.232963884 -s 9 -d -1 -p message -e 32 -c 2 -a 0 -i 1 -k RTR
+ -t 0.336911486 -s 3 -d -1 -p message -e 32 -c 2 -a 0 -i 2 -k RTR 
- -t 0.336911486 -s 3 -d -1 -p message -e 32 -c 2 -a 0 -i 2 -k RTR
h -t 0.336911486 -s 3 -d -1 -p message -e 32 -c 2 -a 0 -i 2 -k RTR
+ -t 0.337526486 -s 3 -d -1 -p message -e 90 -c 2 -a 0 -i 2 -k MAC 
- -t 0.337526486 -s 3 -d -1 -p message -e 90 -c 2 -a 0 -i 2 -k MAC
h -t 0.337526486 -s 3 -d -1 -p message -e 90 -c 2 -a 0 -i 2 -k MAC
r -t 0.338246621 -s 6 -d -1 -p message -e 32 -c 2 -a 0 -i 2 -k MAC
r -t 0.338246649 -s 1 -d -1 -p message -e 32 -c 2 -a 0 -i 2 -k MAC
r -t 0.338246717 -s 7 -d -1 -p message -e 32 -c 2 -a 0 -i 2 -k MAC
r -t 0.338246920 -s 9 -d -1 -p message -e 32 -c 2 -a 0 -i 2 -k MAC
r -t 0.338271621 -s 6 -d -1 -p message -e 32 -c 2 -a 0 -i 2 -k RTR
r -t 0.338271649 -s 1 -d -1 -p message -e 32 -c 2 -a 0 -i 2 -k RTR
r -t 0.338271717 -s 7 -d -1 -p message -e 32 -c 2 -a 0 -i 2 -k RTR
r -t 0.338271920 -s 9 -d -1 -p message -e 32 -c 2 -a 0 -i 2 -k RTR
+ -t 0.358121573 -s 9 -d -1 -p message -e 32 -c 2 -a 0 -i 3 -k RTR 
- -t 0.358121573 -s 9 -d -1 -p message -e 32 -c 2 -a 0 -i 3 -k RTR
h -t 0.358121573 -s 9 -d -1 -p message -e 32 -c 2 -a 0 -i 3 -k RTR
+ -t 0.358556573 -s 9 -d -1 -p message -e 90 -c 2 -a 0 -i 3 -k MAC 
- -t 0.358556573 -s 9 -d -1 -p message -e 90 -c 2 -a 0 -i 3 -k MAC
h -t 0.358556573 -s 9 -d -1 -p message -e 90 -c 2 -a 0 -i 3 -k MAC
r -t 0.359276834 -s 7 -d -1 -p message -e 32 -c 2 -a 0 -i 3 -k MAC
r -t 0.359277007 -s 3 -d -1 -p message -e 32 -c 2 -a 0 -i 3 -k MAC
r -t 0.359277034 -s 1 -d -1 -p message -e 32 -c 2 -a 0 -i 3 -k MAC
r -t 0.359277103 -s 6 -d -1 -p message -e 32 -c 2 -a 0 -i 3 -k MAC
r -t 0.359301834 -s 7 -d -1 -p message -e 32 -c 2 -a 0 -i 3 -k RTR
r -t 0.359302007 -s 3 -d -1 -p message -e 32 -c 2 -a 0 -i 3 -k RTR
r -t 0.359302034 -s 1 -d -1 -p message -e 32 -c 2 -a 0 -i 3 -k RTR
r -t 0.359302103 -s 6 -d -1 -p message -e 32 -c 2 -a 0 -i 3 -k RTR
+ -t 0.622213306 -s 1 -d -1 -p message -e 32 -c 2 -a 0 -i 4 -k RTR 
- -t 0.622213306 -s 1 -d -1 -p message -e 32 -c 2 -a 0 -i 4 -k RTR
h -t 0.622213306 -s 1 -d -1 -p message -e 32 -c 2 -a 0 -i 4 -k RTR
+ -t 0.622488306 -s 1 -d -1 -p message -e 90 -c 2 -a 0 -i 4 -k MAC 
- -t 0.622488306 -s 1 -d -1 -p message -e 90 -c 2 -a 0 -i 4 -k MAC
h -t 0.622488306 -s 1 -d -1 -p message -e 90 -c 2 -a 0 -i 4 -k MAC
r -t 0.623208413 -s 6 -d -1 -p message -e 32 -c 2 -a 0 -i 4 -k MAC
r -t 0.623208470 -s 3 -d -1 -p message -e 32 -c 2 -a 0 -i 4 -k MAC
r -t 0.623208510 -s 7 -d -1 -p message -e 32 -c 2 -a 0 -i 4 -k MAC
r -t 0.623208767 -s 9 -d -1 -p message -e 32 -c 2 -a 0 -i 4 -k MAC
r -t 0.623233413 -s 6 -d -1 -p message -e 32 -c 2 -a 0 -i 4 -k RTR
r -t 0.623233470 -s 3 -d -1 -p message -e 32 -c 2 -a 0 -i 4 -k RTR
r -t 0.623233510 -s 7 -d -1 -p message -e 32 -c 2 -a 0 -i 4 -k RTR
r -t 0.623233767 -s 9 -d -1 -p message -e 32 -c 2 -a 0 -i 4 -k RTR
+ -t 0.856187908 -s 8 -d -1 -p message -e 32 -c 2 -a 0 -i 5 -k RTR 
- -t 0.856187908 -s 8 -d -1 -p message -e 32 -c 2 -a 0 -i 5 -k RTR
h -t 0.856187908 -s 8 -d -1 -p message -e 32 -c 2 -a 0 -i 5 -k RTR
+ -t 0.856462908 -s 8 -d -1 -p message -e 90 -c 2 -a 0 -i 5 -k MAC 
- -t 0.856462908 -s 8 -d -1 -p message -e 90 -c 2 -a 0 -i 5 -k MAC
h -t 0.856462908 -s 8 -d -1 -p message -e 90 -c 2 -a 0 -i 5 -k MAC
r -t 0.857183562 -s 0 -d -1 -p message -e 32 -c 2 -a 0 -i 5 -k MAC
r -t 0.857208562 -s 0 -d -1 -p message -e 32 -c 2 -a 0 -i 5 -k RTR
+ -t 1.278314313 -s 0 -d -1 -p message -e 32 -c 2 -a 0 -i 6 -k RTR 
- -t 1.278314313 -s 0 -d -1 -p message -e 32 -c 2 -a 0 -i 6 -k RTR
h -t 1.278314313 -s 0 -d -1 -p message -e 32 -c 2 -a 0 -i 6 -k RTR
+ -t 1.278729313 -s 0 -d -1 -p message -e 90 -c 2 -a 0 -i 6 -k MAC 
- -t 1.278729313 -s 0 -d -1 -p message -e 90 -c 2 -a 0 -i 6 -k MAC
h -t 1.278729313 -s 0 -d -1 -p message -e 90 -c 2 -a 0 -i 6 -k MAC
r -t 1.279449967 -s 8 -d -1 -p message -e 32 -c 2 -a 0 -i 6 -k MAC
r -t 1.279450006 -s 5 -d -1 -p message -e 32 -c 2 -a 0 -i 6 -k MAC
r -t 1.279474967 -s 8 -d -1 -p message -e 32 -c 2 -a 0 -i 6 -k RTR
r -t 1.279475006 -s 5 -d -1 -p message -e 32 -c 2 -a 0 -i 6 -k RTR
+ -t 1.281366353 -s 5 -d -1 -p message -e 32 -c 2 -a 0 -i 7 -k RTR 
- -t 1.281366353 -s 5 -d -1 -p message -e 32 -c 2 -a 0 -i 7 -k RTR
h -t 1.281366353 -s 5 -d -1 -p message -e 32 -c 2 -a 0 -i 7 -k RTR
+ -t 1.281721353 -s 5 -d -1 -p message -e 90 -c 2 -a 0 -i 7 -k MAC 
- -t 1.281721353 -s 5 -d -1 -p message -e 90 -c 2 -a 0 -i 7 -k MAC
h -t 1.281721353 -s 5 -d -1 -p message -e 90 -c 2 -a 0 -i 7 -k MAC
r -t 1.282442047 -s 0 -d -1 -p message -e 32 -c 2 -a 0 -i 7 -k MAC
r -t 1.282467047 -s 0 -d -1 -p message -e 32 -c 2 -a 0 -i 7 -k RTR
+ -t 1.678095294 -s 2 -d -1 -p message -e 32 -c 2 -a 0 -i 8 -k RTR 
- -t 1.678095294 -s 2 -d -1 -p message -e 32 -c 2 -a 0 -i 8 -k RTR
h -t 1.678095294 -s 2 -d -1 -p message -e 32 -c 2 -a 0 -i 8 -k RTR
+ -t 1.678490294 -s 2 -d -1 -p message -e 90 -c 2 -a 0 -i 8 -k MAC 
- -t 1.678490294 -s 2 -d -1 -p message -e 90 -c 2 -a 0 -i 8 -k MAC
h -t 1.678490294 -s 2 -d -1 -p message -e 90 -c 2 -a 0 -i 8 -k MAC
r -t 1.679210999 -s 4 -d -1 -p message -e 32 -c 2 -a 0 -i 8 -k MAC
r -t 1.679235999 -s 4 -d -1 -p message -e 32 -c 2 -a 0 -i 8 -k RTR
+ -t 1.723712268 -s 7 -d -1 -p message -e 32 -c 2 -a 0 -i 9 -k RTR 
- -t 1.723712268 -s 7 -d -1 -p message -e 32 -c 2 -a 0 -i 9 -k RTR
h -t 1.723712268 -s 7 -d -1 -p message -e 32 -c 2 -a 0 -i 9 -k RTR
+ -t 1.724087268 -s 7 -d -1 -p message -e 90 -c 2 -a 0 -i 9 -k MAC 
- -t 1.724087268 -s 7 -d -1 -p message -e 90 -c 2 -a 0 -i 9 -k MAC
h -t 1.724087268 -s 7 -d -1 -p message -e 90 -c 2 -a 0 -i 9 -k MAC
r -t 1.724807471 -s 1 -d -1 -p message -e 32 -c 2 -a 0 -i 9 -k MAC
r -t 1.724807499 -s 3 -d -1 -p message -e 32 -c 2 -a 0 -i 9 -k MAC
r -t 1.724807528 -s 9 -d -1 -p message -e 32 -c 2 -a 0 -i 9 -k MAC
r -t 1.724807554 -s 6 -d -1 -p message -e 32 -c 2 -a 0 -i 9 -k MAC
r -t 1.724832471 -s 1 -d -1 -p message -e 32 -c 2 -a 0 -i 9 -k RTR
r -t 1.724832499 -s 3 -d -1 -p message -e 32 -c 2 -a 0 -i 9 -k RTR
r -t 1.724832528 -s 9 -d -1 -p message -e 32 -c 2 -a 0 -i 9 -k RTR
r -t 1.724832554 -s 6 -d -1 -p message -e 32 -c 2 -a 0 -i 9 -k RTR
+ -t 10.000000000 -s 1 -d -1 -p tcp -e 40 -c 2 -a 0 -i 10 -k AGT 
- -t 10.000000000 -s 1 -d -1 -p tcp -e 40 -c 2 -a 0 -i 10 -k AGT
h -t 10.000000000 -s 1 -d -1 -p tcp -e 40 -c 2 -a 0 -i 10 -k AGT
+ -t 10.000000000 -s 2 -d -1 -p tcp -e 40 -c 2 -a 0 -i 11 -k AGT 
- -t 10.000000000 -s 2 -d -1 -p tcp -e 40 -c 2 -a 0 -i 11 -k AGT
h -t 10.000000000 -s 2 -d -1 -p tcp -e 40 -c 2 -a 0 -i 11 -k AGT
+ -t 10.000000000 -s 3 -d -1 -p tcp -e 40 -c 2 -a 0 -i 12 -k AGT 
- -t 10.000000000 -s 3 -d -1 -p tcp -e 40 -c 2 -a 0 -i 12 -k AGT
h -t 10.000000000 -s 3 -d -1 -p tcp -e 40 -c 2 -a 0 -i 12 -k AGT
+ -t 10.000000000 -s 4 -d -1 -p tcp -e 40 -c 2 -a 0 -i 13 -k AGT 
- -t 10.000000000 -s 4 -d -1 -p tcp -e 40 -c 2 -a 0 -i 13 -k AGT
h -t 10.000000000 -s 4 -d -1 -p tcp -e 40 -c 2 -a 0 -i 13 -k AGT
+ -t 10.000000000 -s 5 -d -1 -p tcp -e 40 -c 2 -a 0 -i 14 -k AGT 
- -t 10.000000000 -s 5 -d -1 -p tcp -e 40 -c 2 -a 0 -i 14 -k AGT
h -t 10.000000000 -s 5 -d -1 -p tcp -e 40 -c 2 -a 0 -i 14 -k AGT
+ -t 10.000000000 -s 5 -d 0 -p tcp -e 60 -c 2 -a 0 -i 14 -k RTR 
- -t 10.000000000 -s 5 -d 0 -p tcp -e 60 -c 2 -a 0 -i 14 -k RTR
h -t 10.000000000 -s 5 -d 0 -p tcp -e 60 -c 2 -a 0 -i 14 -k RTR
+ -t 10.000000000 -s 6 -d -1 -p tcp -e 40 -c 2 -a 0 -i 15 -k AGT 
- -t 10.000000000 -s 6 -d -1 -p tcp -e 40 -c 2 -a 0 -i 15 -k AGT
h -t 10.000000000 -s 6 -d -1 -p tcp -e 40 -c 2 -a 0 -i 15 -k AGT
+ -t 10.000000000 -s 7 -d -1 -p tcp -e 40 -c 2 -a 0 -i 16 -k AGT 
- -t 10.000000000 -s 7 -d -1 -p tcp -e 40 -c 2 -a 0 -i 16 -k AGT
h -t 10.000000000 -s 7 -d -1 -p tcp -e 40 -c 2 -a 0 -i 16 -k AGT
+ -t 10.000000000 -s 8 -d -1 -p tcp -e 40 -c 2 -a 0 -i 17 -k AGT 
- -t 10.000000000 -s 8 -d -1 -p tcp -e 40 -c 2 -a 0 -i 17 -k AGT
h -t 10.000000000 -s 8 -d -1 -p tcp -e 40 -c 2 -a 0 -i 17 -k AGT
+ -t 10.000000000 -s 8 -d 0 -p tcp -e 60 -c 2 -a 0 -i 17 -k RTR 
- -t 10.000000000 -s 8 -d 0 -p tcp -e 60 -c 2 -a 0 -i 17 -k RTR
h -t 10.000000000 -s 8 -d 0 -p tcp -e 60 -c 2 -a 0 -i 17 -k RTR
+ -t 10.000000000 -s 9 -d -1 -p tcp -e 40 -c 2 -a 0 -i 18 -k AGT 
- -t 10.000000000 -s 9 -d -1 -p tcp -e 40 -c 2 -a 0 -i 18 -k AGT
h -t 10.000000000 -s 9 -d -1 -p tcp -e 40 -c 2 -a 0 -i 18 -k AGT
+ -t 10.000295000 -s 5 -d -1 -p ARP -e 86 -c 2 -a 0 -i 0 -k MAC 
- -t 10.000295000 -s 5 -d -1 -p ARP -e 86 -c 2 -a 0 -i 0 -k MAC
h -t 10.000295000 -s 5 -d -1 -p ARP -e 86 -c 2 -a 0 -i 0 -k MAC
r -t 10.000983694 -s 0 -d -1 -p ARP -e 28 -c 2 -a 0 -i 0 -k MAC
+ -t 10.001058694 -s 0 -d -1 -p RTS -e 44 -c 2 -a 0 -i 0 -k MAC 
- -t 10.001058694 -s 0 -d -1 -p RTS -e 44 -c 2 -a 0 -i 0 -k MAC
h -t 10.001058694 -s 0 -d -1 -p RTS -e 44 -c 2 -a 0 -i 0 -k MAC
r -t 10.001411387 -s 5 -d -1 -p RTS -e 44 -c 2 -a 0 -i 0 -k MAC
+ -t 10.001421387 -s 5 -d -1 -p CTS -e 38 -c 2 -a 0 -i 0 -k MAC 
- -t 10.001421387 -s 5 -d -1 -p CTS -e 38 -c 2 -a 0 -i 0 -k MAC
h -t 10.001421387 -s 5 -d -1 -p CTS -e 38 -c 2 -a 0 -i 0 -k MAC
r -t 10.001726081 -s 0 -d -1 -p CTS -e 38 -c 2 -a 0 -i 0 -k MAC
+ -t 10.001736081 -s 0 -d -1 -p ARP -e 86 -c 2 -a 0 -i 0 -k MAC 
- -t 10.001736081 -s 0 -d -1 -p ARP -e 86 -c 2 -a 0 -i 0 -k MAC
h -t 10.001736081 -s 0 -d -1 -p ARP -e 86 -c 2 -a 0 -i 0 -k MAC
r -t 10.002424774 -s 5 -d -1 -p ARP -e 28 -c 2 -a 0 -i 0 -k MAC
+ -t 10.002434774 -s 5 -d -1 -p ACK -e 38 -c 2 -a 0 -i 0 -k MAC 
- -t 10.002434774 -s 5 -d -1 -p ACK -e 38 -c 2 -a 0 -i 0 -k MAC
h -t 10.002434774 -s 5 -d -1 -p ACK -e 38 -c 2 -a 0 -i 0 -k MAC
r -t 10.002739468 -s 0 -d -1 -p ACK -e 38 -c 2 -a 0 -i 0 -k MAC
+ -t 10.003048774 -s 5 -d -1 -p RTS -e 44 -c 2 -a 0 -i 0 -k MAC 
- -t 10.003048774 -s 5 -d -1 -p RTS -e 44 -c 2 -a 0 -i 0 -k MAC
h -t 10.003048774 -s 5 -d -1 -p RTS -e 44 -c 2 -a 0 -i 0 -k MAC
r -t 10.003401468 -s 0 -d -1 -p RTS -e 44 -c 2 -a 0 -i 0 -k MAC
+ -t 10.003411468 -s 0 -d -1 -p CTS -e 38 -c 2 -a 0 -i 0 -k MAC 
- -t 10.003411468 -s 0 -d -1 -p CTS -e 38 -c 2 -a 0 -i 0 -k MAC
h -t 10.003411468 -s 0 -d -1 -p CTS -e 38 -c 2 -a 0 -i 0 -k MAC
r -t 10.003716162 -s 5 -d -1 -p CTS -e 38 -c 2 -a 0 -i 0 -k MAC
+ -t 10.003726162 -s 5 -d 0 -p tcp -e 118 -c 2 -a 0 -i 14 -k MAC 
- -t 10.003726162 -s 5 -d 0 -p tcp -e 118 -c 2 -a 0 -i 14 -k MAC
h -t 10.003726162 -s 5 -d 0 -p tcp -e 118 -c 2 -a 0 -i 14 -k MAC
r -t 10.004670855 -s 0 -d 0 -p tcp -e 60 -c 2 -a 0 -i 14 -k MAC
+ -t 10.004680855 -s 0 -d -1 -p ACK -e 38 -c 2 -a 0 -i 0 -k MAC 
- -t 10.004680855 -s 0 -d -1 -p ACK -e 38 -c 2 -a 0 -i 0 -k MAC
h -t 10.004680855 -s 0 -d -1 -p ACK -e 38 -c 2 -a 0 -i 0 -k MAC
r -t 10.004695855 -s 0 -d 0 -p tcp -e 60 -c 2 -a 0 -i 14 -k AGT
+ -t 10.004695855 -s 0 -d -1 -p ack -e 40 -c 2 -a 0 -i 19 -k AGT 
- -t 10.004695855 -s 0 -d -1 -p ack -e 40 -c 2 -a 0 -i 19 -k AGT
h -t 10.004695855 -s 0 -d -1 -p ack -e 40 -c 2 -a 0 -i 19 -k AGT
r -t 10.004985549 -s 5 -d -1 -p ACK -e 38 -c 2 -a 0 -i 0 -k MAC
+ -t 10.005145465 -s 8 -d -1 -p ARP -e 86 -c 2 -a 0 -i 0 -k MAC 
- -t 10.005145465 -s 8 -d -1 -p ARP -e 86 -c 2 -a 0 -i 0 -k MAC
h -t 10.005145465 -s 8 -d -1 -p ARP -e 86 -c 2 -a 0 -i 0 -k MAC
r -t 10.005834119 -s 0 -d -1 -p ARP -e 28 -c 2 -a 0 -i 0 -k MAC
+ -t 10.006004119 -s 0 -d -1 -p RTS -e 44 -c 2 -a 0 -i 0 -k MAC 
- -t 10.006004119 -s 0 -d -1 -p RTS -e 44 -c 2 -a 0 -i 0 -k MAC
h -t 10.006004119 -s 0 -d -1 -p RTS -e 44 -c 2 -a 0 -i 0 -k MAC
r -t 10.006356773 -s 8 -d -1 -p RTS -e 44 -c 2 -a 0 -i 0 -k MAC
+ -t 10.006366773 -s 8 -d -1 -p CTS -e 38 -c 2 -a 0 -i 0 -k MAC 
- -t 10.006366773 -s 8 -d -1 -p CTS -e 38 -c 2 -a 0 -i 0 -k MAC
h -t 10.006366773 -s 8 -d -1 -p CTS -e 38 -c 2 -a 0 -i 0 -k MAC
r -t 10.006671427 -s 0 -d -1 -p CTS -e 38 -c 2 -a 0 -i 0 -k MAC
+ -t 10.006681427 -s 0 -d -1 -p ARP -e 86 -c 2 -a 0 -i 0 -k MAC 
- -t 10.006681427 -s 0 -d -1 -p ARP -e 86 -c 2 -a 0 -i 0 -k MAC
h -t 10.006681427 -s 0 -d -1 -p ARP -e 86 -c 2 -a 0 -i 0 -k MAC
r -t 10.007370081 -s 8 -d -1 -p ARP -e 28 -c 2 -a 0 -i 0 -k MAC
+ -t 10.007380081 -s 8 -d -1 -p ACK -e 38 -c 2 -a 0 -i 0 -k MAC 
- -t 10.007380081 -s 8 -d -1 -p ACK -e 38 -c 2 -a 0 -i 0 -k MAC
h -t 10.007380081 -s 8 -d -1 -p ACK -e 38 -c 2 -a 0 -i 0 -k MAC
r -t 10.007684735 -s 0 -d -1 -p ACK -e 38 -c 2 -a 0 -i 0 -k MAC
+ -t 10.008034081 -s 8 -d -1 -p RTS -e 44 -c 2 -a 0 -i 0 -k MAC 
- -t 10.008034081 -s 8 -d -1 -p RTS -e 44 -c 2 -a 0 -i 0 -k MAC
h -t 10.008034081 -s 8 -d -1 -p RTS -e 44 -c 2 -a 0 -i 0 -k MAC
r -t 10.008386735 -s 0 -d -1 -p RTS -e 44 -c 2 -a 0 -i 0 -k MAC
+ -t 10.008396735 -s 0 -d -1 -p CTS -e 38 -c 2 -a 0 -i 0 -k MAC 
- -t 10.008396735 -s 0 -d -1 -p CTS -e 38 -c 2 -a 0 -i 0 -k MAC
h -t 10.008396735 -s 0 -d -1 -p CTS -e 38 -c 2 -a 0 -i 0 -k MAC
r -t 10.008701389 -s 8 -d -1 -p CTS -e 38 -c 2 -a 0 -i 0 -k MAC
+ -t 10.008711389 -s 8 -d 0 -p tcp -e 118 -c 2 -a 0 -i 17 -k MAC 
- -t 10.008711389 -s 8 -d 0 -p tcp -e 118 -c 2 -a 0 -i 17 -k MAC
h -t 10.008711389 -s 8 -d 0 -p tcp -e 118 -c 2 -a 0 -i 17 -k MAC
r -t 10.009656043 -s 0 -d 0 -p tcp -e 60 -c 2 -a 0 -i 17 -k MAC
+ -t 10.009666043 -s 0 -d -1 -p ACK -e 38 -c 2 -a 0 -i 0 -k MAC 
- -t 10.009666043 -s 0 -d -1 -p ACK -e 38 -c 2 -a 0 -i 0 -k MAC
h -t 10.009666043 -s 0 -d -1 -p ACK -e 38 -c 2 -a 0 -i 0 -k MAC
r -t 10.009681043 -s 0 -d 0 -p tcp -e 60 -c 2 -a 0 -i 17 -k AGT
+ -t 10.009681043 -s 0 -d -1 -p ack -e 40 -c 2 -a 0 -i 20 -k AGT 
- -t 10.009681043 -s 0 -d -1 -p ack -e 40 -c 2 -a 0 -i 20 -k AGT
h -t 10.009681043 -s 0 -d -1 -p ack -e 40 -c 2 -a 0 -i 20 -k AGT
r -t 10.009970697 -s 8 -d -1 -p ACK -e 38 -c 2 -a 0 -i 0 -k MAC
+ -t 12.096202264 -s 2 -d -1 -p message -e 32 -c 2 -a 0 -i 21 -k RTR 
- -t 12.096202264 -s 2 -d -1 -p message -e 32 -c 2 -a 0 -i 21 -k RTR
h -t 12.096202264 -s 2 -d -1 -p message -e 32 -c 2 -a 0 -i 21 -k RTR
+ -t 12.096477264 -s 2 -d -1 -p message -e 90 -c 2 -a 0 -i 21 -k MAC 
- -t 12.096477264 -s 2 -d -1 -p message -e 90 -c 2 -a 0 -i 21 -k MAC
h -t 12.096477264 -s 2 -d -1 -p message -e 90 -c 2 -a 0 -i 21 -k MAC
r -t 12.097197969 -s 4 -d -1 -p message -e 32 -c 2 -a 0 -i 21 -k MAC
r -t 12.097222969 -s 4 -d -1 -p message -e 32 -c 2 -a 0 -i 21 -k RTR
+ -t 12.233845491 -s 3 -d -1 -p message -e 32 -c 2 -a 0 -i 23 -k RTR 
- -t 12.233845491 -s 3 -d -1 -p message -e 32 -c 2 -a 0 -i 23 -k RTR
h -t 12.233845491 -s 3 -d -1 -p message -e 32 -c 2 -a 0 -i 23 -k RTR
+ -t 12.234260491 -s 3 -d -1 -p message -e 90 -c 2 -a 0 -i 23 -k MAC 
- -t 12.234260491 -s 3 -d -1 -p message -e 90 -c 2 -a 0 -i 23 -k MAC
h -t 12.234260491 -s 3 -d -1 -p message -e 90 -c 2 -a 0 -i 23 -k MAC
r -t 12.234980626 -s 6 -d -1 -p message -e 32 -c 2 -a 0 -i 23 -k MAC
r -t 12.234980654 -s 1 -d -1 -p message -e 32 -c 2 -a 0 -i 23 -k MAC
r -t 12.234980722 -s 7 -d -1 -p message -e 32 -c 2 -a 0 -i 23 -k MAC
r -t 12.234980925 -s 9 -d -1 -p message -e 32 -c 2 -a 0 -i 23 -k MAC
r -t 12.235005626 -s 6 -d -1 -p message -e 32 -c 2 -a 0 -i 23 -k RTR
r -t 12.235005654 -s 1 -d -1 -p message -e 32 -c 2 -a 0 -i 23 -k RTR
r -t 12.235005722 -s 7 -d -1 -p message -e 32 -c 2 -a 0 -i 23 -k RTR
r -t 12.235005925 -s 9 -d -1 -p message -e 32 -c 2 -a 0 -i 23 -k RTR
+ -t 12.237175661 -s 1 -d -1 -p message -e 32 -c 2 -a 0 -i 22 -k RTR 
- -t 12.237175661 -s 1 -d -1 -p message -e 32 -c 2 -a 0 -i 22 -k RTR
h -t 12.237175661 -s 1 -d -1 -p message -e 32 -c 2 -a 0 -i 22 -k RTR
+ -t 12.237370661 -s 1 -d -1 -p message -e 90 -c 2 -a 0 -i 22 -k MAC 
- -t 12.237370661 -s 1 -d -1 -p message -e 90 -c 2 -a 0 -i 22 -k MAC
h -t 12.237370661 -s 1 -d -1 -p message -e 90 -c 2 -a 0 -i 22 -k MAC
r -t 12.238090767 -s 6 -d -1 -p message -e 32 -c 2 -a 0 -i 22 -k MAC
r -t 12.238090824 -s 3 -d -1 -p message -e 32 -c 2 -a 0 -i 22 -k MAC
r -t 12.238090864 -s 7 -d -1 -p message -e 32 -c 2 -a 0 -i 22 -k MAC
r -t 12.238091122 -s 9 -d -1 -p message -e 32 -c 2 -a 0 -i 22 -k MAC
r -t 12.238115767 -s 6 -d -1 -p message -e 32 -c 2 -a 0 -i 22 -k RTR
r -t 12.238115824 -s 3 -d -1 -p message -e 32 -c 2 -a 0 -i 22 -k RTR
r -t 12.238115864 -s 7 -d -1 -p message -e 32 -c 2 -a 0 -i 22 -k RTR
r -t 12.238116122 -s 9 -d -1 -p message -e 32 -c 2 -a 0 -i 22 -k RTR
+ -t 12.241107642 -s 7 -d -1 -p message -e 32 -c 2 -a 0 -i 24 -k RTR 
- -t 12.241107642 -s 7 -d -1 -p message -e 32 -c 2 -a 0 -i 24 -k RTR
h -t 12.241107642 -s 7 -d -1 -p message -e 32 -c 2 -a 0 -i 24 -k RTR
+ -t 12.241762642 -s 7 -d -1 -p message -e 90 -c 2 -a 0 -i 24 -k MAC 
- -t 12.241762642 -s 7 -d -1 -p message -e 90 -c 2 -a 0 -i 24 -k MAC
h -t 12.241762642 -s 7 -d -1 -p message -e 90 -c 2 -a 0 -i 24 -k MAC
+ -t 12.241992361 -s 9 -d -1 -p message -e 32 -c 2 -a 0 -i 25 -k RTR 
- -t 12.241992361 -s 9 -d -1 -p message -e 32 -c 2 -a 0 -i 25 -k RTR
h -t 12.241992361 -s 9 -d -1 -p message -e 32 -c 2 -a 0 -i 25 -k RTR
r -t 12.242482845 -s 1 -d -1 -p message -e 32 -c 2 -a 0 -i 24 -k MAC
r -t 12.242482873 -s 3 -d -1 -p message -e 32 -c 2 -a 0 -i 24 -k MAC
r -t 12.242482902 -s 9 -d -1 -p message -e 32 -c 2 -a 0 -i 24 -k MAC
r -t 12.242482928 -s 6 -d -1 -p message -e 32 -c 2 -a 0 -i 24 -k MAC
r -t 12.242507845 -s 1 -d -1 -p message -e 32 -c 2 -a 0 -i 24 -k RTR
r -t 12.242507873 -s 3 -d -1 -p message -e 32 -c 2 -a 0 -i 24 -k RTR
r -t 12.242507902 -s 9 -d -1 -p message -e 32 -c 2 -a 0 -i 24 -k RTR
r -t 12.242507928 -s 6 -d -1 -p message -e 32 -c 2 -a 0 -i 24 -k RTR
+ -t 12.242652902 -s 9 -d -1 -p message -e 90 -c 2 -a 0 -i 25 -k MAC 
- -t 12.242652902 -s 9 -d -1 -p message -e 90 -c 2 -a 0 -i 25 -k MAC
h -t 12.242652902 -s 9 -d -1 -p message -e 90 -c 2 -a 0 -i 25 -k MAC
r -t 12.243373162 -s 7 -d -1 -p message -e 32 -c 2 -a 0 -i 25 -k MAC
r -t 12.243373336 -s 3 -d -1 -p message -e 32 -c 2 -a 0 -i 25 -k MAC
r -t 12.243373363 -s 1 -d -1 -p message -e 32 -c 2 -a 0 -i 25 -k MAC
r -t 12.243373432 -s 6 -d -1 -p message -e 32 -c 2 -a 0 -i 25 -k MAC
r -t 12.243398162 -s 7 -d -1 -p message -e 32 -c 2 -a 0 -i 25 -k RTR
r -t 12.243398336 -s 3 -d -1 -p message -e 32 -c 2 -a 0 -i 25 -k RTR
r -t 12.243398363 -s 1 -d -1 -p message -e 32 -c 2 -a 0 -i 25 -k RTR
r -t 12.243398432 -s 6 -d -1 -p message -e 32 -c 2 -a 0 -i 25 -k RTR
+ -t 12.285490136 -s 1 -d -1 -p message -e 44 -c 2 -a 0 -i 26 -k RTR 
- -t 12.285490136 -s 1 -d -1 -p message -e 44 -c 2 -a 0 -i 26 -k RTR
h -t 12.285490136 -s 1 -d -1 -p message -e 44 -c 2 -a 0 -i 26 -k RTR
+ -t 12.285865136 -s 1 -d -1 -p message -e 102 -c 2 -a 0 -i 26 -k MAC 
- -t 12.285865136 -s 1 -d -1 -p message -e 102 -c 2 -a 0 -i 26 -k MAC
h -t 12.285865136 -s 1 -d -1 -p message -e 102 -c 2 -a 0 -i 26 -k MAC
r -t 12.286681242 -s 6 -d -1 -p message -e 44 -c 2 -a 0 -i 26 -k MAC
r -t 12.286681299 -s 3 -d -1 -p message -e 44 -c 2 -a 0 -i 26 -k MAC
r -t 12.286681339 -s 7 -d -1 -p message -e 44 -c 2 -a 0 -i 26 -k MAC
r -t 12.286681597 -s 9 -d -1 -p message -e 44 -c 2 -a 0 -i 26 -k MAC
r -t 12.286706242 -s 6 -d -1 -p message -e 44 -c 2 -a 0 -i 26 -k RTR
r -t 12.286706299 -s 3 -d -1 -p message -e 44 -c 2 -a 0 -i 26 -k RTR
r -t 12.286706339 -s 7 -d -1 -p message -e 44 -c 2 -a 0 -i 26 -k RTR
r -t 12.286706597 -s 9 -d -1 -p message -e 44 -c 2 -a 0 -i 26 -k RTR
+ -t 12.343732852 -s 6 -d -1 -p message -e 32 -c 2 -a 0 -i 27 -k RTR 
- -t 12.343732852 -s 6 -d -1 -p message -e 32 -c 2 -a 0 -i 27 -k RTR
h -t 12.343732852 -s 6 -d -1 -p message -e 32 -c 2 -a 0 -i 27 -k RTR
+ -t 12.343847852 -s 6 -d -1 -p message -e 90 -c 2 -a 0 -i 27 -k MAC 
- -t 12.343847852 -s 6 -d -1 -p message -e 90 -c 2 -a 0 -i 27 -k MAC
h -t 12.343847852 -s 6 -d -1 -p message -e 90 -c 2 -a 0 -i 27 -k MAC
r -t 12.344567958 -s 1 -d -1 -p message -e 32 -c 2 -a 0 -i 27 -k MAC
r -t 12.344567987 -s 3 -d -1 -p message -e 32 -c 2 -a 0 -i 27 -k MAC
r -t 12.344568138 -s 7 -d -1 -p message -e 32 -c 2 -a 0 -i 27 -k MAC
r -t 12.344568382 -s 9 -d -1 -p message -e 32 -c 2 -a 0 -i 27 -k MAC
r -t 12.344592958 -s 1 -d -1 -p message -e 32 -c 2 -a 0 -i 27 -k RTR
r -t 12.344592987 -s 3 -d -1 -p message -e 32 -c 2 -a 0 -i 27 -k RTR
r -t 12.344593138 -s 7 -d -1 -p message -e 32 -c 2 -a 0 -i 27 -k RTR
r -t 12.344593382 -s 9 -d -1 -p message -e 32 -c 2 -a 0 -i 27 -k RTR
+ -t 12.569095854 -s 0 -d -1 -p message -e 32 -c 2 -a 0 -i 28 -k RTR 
- -t 12.569095854 -s 0 -d -1 -p message -e 32 -c 2 -a 0 -i 28 -k RTR
h -t 12.569095854 -s 0 -d -1 -p message -e 32 -c 2 -a 0 -i 28 -k RTR
+ -t 12.569330854 -s 0 -d -1 -p message -e 90 -c 2 -a 0 -i 28 -k MAC 
- -t 12.569330854 -s 0 -d -1 -p message -e 90 -c 2 -a 0 -i 28 -k MAC
h -t 12.569330854 -s 0 -d -1 -p message -e 90 -c 2 -a 0 -i 28 -k MAC
r -t 12.570051508 -s 8 -d -1 -p message -e 32 -c 2 -a 0 -i 28 -k MAC
r -t 12.570051547 -s 5 -d -1 -p message -e 32 -c 2 -a 0 -i 28 -k MAC
r -t 12.570076508 -s 8 -d -1 -p message -e 32 -c 2 -a 0 -i 28 -k RTR
r -t 12.570076547 -s 5 -d -1 -p message -e 32 -c 2 -a 0 -i 28 -k RTR
+ -t 13.000000000 -s 1 -d -1 -p tcp -e 40 -c 2 -a 0 -i 29 -k AGT 
- -t 13.000000000 -s 1 -d -1 -p tcp -e 40 -c 2 -a 0 -i 29 -k AGT
h -t 13.000000000 -s 1 -d -1 -p tcp -e 40 -c 2 -a 0 -i 29 -k AGT
+ -t 13.000000000 -s 2 -d -1 -p tcp -e 40 -c 2 -a 0 -i 30 -k AGT 
- -t 13.000000000 -s 2 -d -1 -p tcp -e 40 -c 2 -a 0 -i 30 -k AGT
h -t 13.000000000 -s 2 -d -1 -p tcp -e 40 -c 2 -a 0 -i 30 -k AGT
+ -t 13.000000000 -s 3 -d -1 -p tcp -e 40 -c 2 -a 0 -i 31 -k AGT 
- -t 13.000000000 -s 3 -d -1 -p tcp -e 40 -c 2 -a 0 -i 31 -k AGT
h -t 13.000000000 -s 3 -d -1 -p tcp -e 40 -c 2 -a 0 -i 31 -k AGT
+ -t 13.000000000 -s 4 -d -1 -p tcp -e 40 -c 2 -a 0 -i 32 -k AGT 
- -t 13.000000000 -s 4 -d -1 -p tcp -e 40 -c 2 -a 0 -i 32 -k AGT
h -t 13.000000000 -s 4 -d -1 -p tcp -e 40 -c 2 -a 0 -i 32 -k AGT
+ -t 13.000000000 -s 5 -d -1 -p tcp -e 40 -c 2 -a 0 -i 33 -k AGT 
- -t 13.000000000 -s 5 -d -1 -p tcp -e 40 -c 2 -a 0 -i 33 -k AGT
h -t 13.000000000 -s 5 -d -1 -p tcp -e 40 -c 2 -a 0 -i 33 -k AGT
+ -t 13.000000000 -s 5 -d 0 -p tcp -e 60 -c 2 -a 0 -i 33 -k RTR 
- -t 13.000000000 -s 5 -d 0 -p tcp -e 60 -c 2 -a 0 -i 33 -k RTR
h -t 13.000000000 -s 5 -d 0 -p tcp -e 60 -c 2 -a 0 -i 33 -k RTR
+ -t 13.000000000 -s 6 -d -1 -p tcp -e 40 -c 2 -a 0 -i 34 -k AGT 
- -t 13.000000000 -s 6 -d -1 -p tcp -e 40 -c 2 -a 0 -i 34 -k AGT
h -t 13.000000000 -s 6 -d -1 -p tcp -e 40 -c 2 -a 0 -i 34 -k AGT
+ -t 13.000000000 -s 7 -d -1 -p tcp -e 40 -c 2 -a 0 -i 35 -k AGT 
- -t 13.000000000 -s 7 -d -1 -p tcp -e 40 -c 2 -a 0 -i 35 -k AGT
h -t 13.000000000 -s 7 -d -1 -p tcp -e 40 -c 2 -a 0 -i 35 -k AGT
+ -t 13.000000000 -s 8 -d -1 -p tcp -e 40 -c 2 -a 0 -i 36 -k AGT 
- -t 13.000000000 -s 8 -d -1 -p tcp -e 40 -c 2 -a 0 -i 36 -k AGT
h -t 13.000000000 -s 8 -d -1 -p tcp -e 40 -c 2 -a 0 -i 36 -k AGT
+ -t 13.000000000 -s 8 -d 0 -p tcp -e 60 -c 2 -a 0 -i 36 -k RTR 
- -t 13.000000000 -s 8 -d 0 -p tcp -e 60 -c 2 -a 0 -i 36 -k RTR
h -t 13.000000000 -s 8 -d 0 -p tcp -e 60 -c 2 -a 0 -i 36 -k RTR
+ -t 13.000000000 -s 9 -d -1 -p tcp -e 40 -c 2 -a 0 -i 37 -k AGT 
- -t 13.000000000 -s 9 -d -1 -p tcp -e 40 -c 2 -a 0 -i 37 -k AGT
h -t 13.000000000 -s 9 -d -1 -p tcp -e 40 -c 2 -a 0 -i 37 -k AGT
+ -t 13.000195000 -s 8 -d -1 -p RTS -e 44 -c 2 -a 0 -i 0 -k MAC 
- -t 13.000195000 -s 8 -d -1 -p RTS -e 44 -c 2 -a 0 -i 0 -k MAC
h -t 13.000195000 -s 8 -d -1 -p RTS -e 44 -c 2 -a 0 -i 0 -k MAC
r -t 13.000547654 -s 0 -d -1 -p RTS -e 44 -c 2 -a 0 -i 0 -k MAC
+ -t 13.000557654 -s 0 -d -1 -p CTS -e 38 -c 2 -a 0 -i 0 -k MAC 
- -t 13.000557654 -s 0 -d -1 -p CTS -e 38 -c 2 -a 0 -i 0 -k MAC
h -t 13.000557654 -s 0 -d -1 -p CTS -e 38 -c 2 -a 0 -i 0 -k MAC
r -t 13.000862308 -s 8 -d -1 -p CTS -e 38 -c 2 -a 0 -i 0 -k MAC
+ -t 13.000872308 -s 8 -d 0 -p tcp -e 118 -c 2 -a 0 -i 36 -k MAC 
- -t 13.000872308 -s 8 -d 0 -p tcp -e 118 -c 2 -a 0 -i 36 -k MAC
h -t 13.000872308 -s 8 -d 0 -p tcp -e 118 -c 2 -a 0 -i 36 -k MAC
r -t 13.001816962 -s 0 -d 0 -p tcp -e 60 -c 2 -a 0 -i 36 -k MAC
+ -t 13.001826962 -s 0 -d -1 -p ACK -e 38 -c 2 -a 0 -i 0 -k MAC 
- -t 13.001826962 -s 0 -d -1 -p ACK -e 38 -c 2 -a 0 -i 0 -k MAC
h -t 13.001826962 -s 0 -d -1 -p ACK -e 38 -c 2 -a 0 -i 0 -k MAC
r -t 13.001841962 -s 0 -d 0 -p tcp -e 60 -c 2 -a 0 -i 36 -k AGT
+ -t 13.001841962 -s 0 -d -1 -p ack -e 40 -c 2 -a 0 -i 38 -k AGT 
- -t 13.001841962 -s 0 -d -1 -p ack -e 40 -c 2 -a 0 -i 38 -k AGT
h -t 13.001841962 -s 0 -d -1 -p ack -e 40 -c 2 -a 0 -i 38 -k AGT
r -t 13.002131616 -s 8 -d -1 -p ACK -e 38 -c 2 -a 0 -i 0 -k MAC
+ -t 13.002511611 -s 5 -d -1 -p RTS -e 44 -c 2 -a 0 -i 0 -k MAC 
- -t 13.002511611 -s 5 -d -1 -p RTS -e 44 -c 2 -a 0 -i 0 -k MAC
h -t 13.002511611 -s 5 -d -1 -p RTS -e 44 -c 2 -a 0 -i 0 -k MAC
r -t 13.002864305 -s 0 -d -1 -p RTS -e 44 -c 2 -a 0 -i 0 -k MAC
+ -t 13.002874305 -s 0 -d -1 -p CTS -e 38 -c 2 -a 0 -i 0 -k MAC 
- -t 13.002874305 -s 0 -d -1 -p CTS -e 38 -c 2 -a 0 -i 0 -k MAC
h -t 13.002874305 -s 0 -d -1 -p CTS -e 38 -c 2 -a 0 -i 0 -k MAC
r -t 13.003178998 -s 5 -d -1 -p CTS -e 38 -c 2 -a 0 -i 0 -k MAC
+ -t 13.003188998 -s 5 -d 0 -p tcp -e 118 -c 2 -a 0 -i 33 -k MAC 
- -t 13.003188998 -s 5 -d 0 -p tcp -e 118 -c 2 -a 0 -i 33 -k MAC
h -t 13.003188998 -s 5 -d 0 -p tcp -e 118 -c 2 -a 0 -i 33 -k MAC
r -t 13.004133692 -s 0 -d 0 -p tcp -e 60 -c 2 -a 0 -i 33 -k MAC
+ -t 13.004143692 -s 0 -d -1 -p ACK -e 38 -c 2 -a 0 -i 0 -k MAC 
- -t 13.004143692 -s 0 -d -1 -p ACK -e 38 -c 2 -a 0 -i 0 -k MAC
h -t 13.004143692 -s 0 -d -1 -p ACK -e 38 -c 2 -a 0 -i 0 -k MAC
r -t 13.004158692 -s 0 -d 0 -p tcp -e 60 -c 2 -a 0 -i 33 -k AGT
+ -t 13.004158692 -s 0 -d -1 -p ack -e 40 -c 2 -a 0 -i 39 -k AGT 
- -t 13.004158692 -s 0 -d -1 -p ack -e 40 -c 2 -a 0 -i 39 -k AGT
h -t 13.004158692 -s 0 -d -1 -p ack -e 40 -c 2 -a 0 -i 39 -k AGT
r -t 13.004448385 -s 5 -d -1 -p ACK -e 38 -c 2 -a 0 -i 0 -k MAC
+ -t 13.076013264 -s 7 -d -1 -p message -e 68 -c 2 -a 0 -i 40 -k RTR 
- -t 13.076013264 -s 7 -d -1 -p message -e 68 -c 2 -a 0 -i 40 -k RTR
h -t 13.076013264 -s 7 -d -1 -p message -e 68 -c 2 -a 0 -i 40 -k RTR
+ -t 13.076448264 -s 7 -d -1 -p message -e 126 -c 2 -a 0 -i 40 -k MAC 
- -t 13.076448264 -s 7 -d -1 -p message -e 126 -c 2 -a 0 -i 40 -k MAC
h -t 13.076448264 -s 7 -d -1 -p message -e 126 -c 2 -a 0 -i 40 -k MAC
r -t 13.077456468 -s 1 -d -1 -p message -e 68 -c 2 -a 0 -i 40 -k MAC
r -t 13.077456496 -s 3 -d -1 -p message -e 68 -c 2 -a 0 -i 40 -k MAC
r -t 13.077456525 -s 9 -d -1 -p message -e 68 -c 2 -a 0 -i 40 -k MAC
r -t 13.077456551 -s 6 -d -1 -p message -e 68 -c 2 -a 0 -i 40 -k MAC
r -t 13.077481468 -s 1 -d -1 -p message -e 68 -c 2 -a 0 -i 40 -k RTR
r -t 13.077481496 -s 3 -d -1 -p message -e 68 -c 2 -a 0 -i 40 -k RTR
r -t 13.077481525 -s 9 -d -1 -p message -e 68 -c 2 -a 0 -i 40 -k RTR
r -t 13.077481551 -s 6 -d -1 -p message -e 68 -c 2 -a 0 -i 40 -k RTR
+ -t 13.233283298 -s 9 -d -1 -p message -e 44 -c 2 -a 0 -i 42 -k RTR 
- -t 13.233283298 -s 9 -d -1 -p message -e 44 -c 2 -a 0 -i 42 -k RTR
h -t 13.233283298 -s 9 -d -1 -p message -e 44 -c 2 -a 0 -i 42 -k RTR
+ -t 13.233678298 -s 9 -d -1 -p message -e 102 -c 2 -a 0 -i 42 -k MAC 
- -t 13.233678298 -s 9 -d -1 -p message -e 102 -c 2 -a 0 -i 42 -k MAC
h -t 13.233678298 -s 9 -d -1 -p message -e 102 -c 2 -a 0 -i 42 -k MAC
r -t 13.234494559 -s 7 -d -1 -p message -e 44 -c 2 -a 0 -i 42 -k MAC
r -t 13.234494733 -s 3 -d -1 -p message -e 44 -c 2 -a 0 -i 42 -k MAC
r -t 13.234494759 -s 1 -d -1 -p message -e 44 -c 2 -a 0 -i 42 -k MAC
r -t 13.234494829 -s 6 -d -1 -p message -e 44 -c 2 -a 0 -i 42 -k MAC
r -t 13.234519559 -s 7 -d -1 -p message -e 44 -c 2 -a 0 -i 42 -k RTR
r -t 13.234519733 -s 3 -d -1 -p message -e 44 -c 2 -a 0 -i 42 -k RTR
r -t 13.234519759 -s 1 -d -1 -p message -e 44 -c 2 -a 0 -i 42 -k RTR
r -t 13.234519829 -s 6 -d -1 -p message -e 44 -c 2 -a 0 -i 42 -k RTR
+ -t 13.234675679 -s 3 -d -1 -p message -e 44 -c 2 -a 0 -i 41 -k RTR 
- -t 13.234675679 -s 3 -d -1 -p message -e 44 -c 2 -a 0 -i 41 -k RTR
h -t 13.234675679 -s 3 -d -1 -p message -e 44 -c 2 -a 0 -i 41 -k RTR
+ -t 13.234770679 -s 3 -d -1 -p message -e 102 -c 2 -a 0 -i 41 -k MAC 
- -t 13.234770679 -s 3 -d -1 -p message -e 102 -c 2 -a 0 -i 41 -k MAC
h -t 13.234770679 -s 3 -d -1 -p message -e 102 -c 2 -a 0 -i 41 -k MAC
r -t 13.235586815 -s 6 -d -1 -p message -e 44 -c 2 -a 0 -i 41 -k MAC
r -t 13.235586843 -s 1 -d -1 -p message -e 44 -c 2 -a 0 -i 41 -k MAC
r -t 13.235586911 -s 7 -d -1 -p message -e 44 -c 2 -a 0 -i 41 -k MAC
r -t 13.235587114 -s 9 -d -1 -p message -e 44 -c 2 -a 0 -i 41 -k MAC