+ 0.520128 4 3 tcp 40 ------- 2 9.0 1.0 0 1
- 0.520128 4 3 tcp 40 ------- 2 9.0 1.0 0 1
+ 0.5232 4 3 cbr 1000 ------- 3 6.0 2.0 0 0
- 0.5232 4 3 cbr 1000 ------- 3 6.0 2.0 0 0
+ 0.5312 4 3 cbr 1000 ------- 3 6.0 2.0 1 2
- 0.5312 4 3 cbr 1000 ------- 3 6.0 2.0 1 2
+ 0.5392 4 3 cbr 1000 ------- 3 6.0 2.0 2 3
- 0.5392 4 3 cbr 1000 ------- 3 6.0 2.0 2 3
r 0.540341 4 3 tcp 40 ------- 2 9.0 1.0 0 1
+ 0.5472 4 3 cbr 1000 ------- 3 6.0 2.0 3 4
- 0.5472 4 3 cbr 1000 ------- 3 6.0 2.0 3 4
r 0.548533 4 3 cbr 1000 ------- 3 6.0 2.0 0 0
+ 0.5552 4 3 cbr 1000 ------- 3 6.0 2.0 4 5
- 0.5552 4 3 cbr 1000 ------- 3 6.0 2.0 4 5
r 0.556533 4 3 cbr 1000 ------- 3 6.0 2.0 1 2
+ 0.5632 4 3 cbr 1000 ------- 3 6.0 2.0 5 6
- 0.5632 4 3 cbr 1000 ------- 3 6.0 2.0 5 6
r 0.564533 4 3 cbr 1000 ------- 3 6.0 2.0 2 3
+ 0.5712 4 3 cbr 1000 ------- 3 6.0 2.0 6 7
- 0.5712 4 3 cbr 1000 ------- 3 6.0 2.0 6 7
r 0.572533 4 3 cbr 1000 ------- 3 6.0 2.0 3 4
+ 0.5792 4 3 cbr 1000 ------- 3 6.0 2.0 7 9
- 0.5792 4 3 cbr 1000 ------- 3 6.0 2.0 7 9
r 0.580533 4 3 cbr 1000 ------- 3 6.0 2.0 4 5
+ 0.5872 4 3 cbr 1000 ------- 3 6.0 2.0 8 10
- 0.5872 4 3 cbr 1000 ------- 3 6.0 2.0 8 10
r 0.588533 4 3 cbr 1000 ------- 3 6.0 2.0 5 6
+ 0.5952 4 3 cbr 1000 ------- 3 6.0 2.0 9 11
- 0.5952 4 3 cbr 1000 ------- 3 6.0 2.0 9 11
r 0.596533 4 3 cbr 1000 ------- 3 6.0 2.0 6 7
+ 0.6032 4 3 cbr 1000 ------- 3 6.0 2.0 10 12
- 0.6032 4 3 cbr 1000 ------- 3 6.0 2.0 10 12
r 0.604533 4 3 cbr 1000 ------- 3 6.0 2.0 7 9
+ 0.6112 4 3 cbr 1000 ------- 3 6.0 2.0 11 13
- 0.6112 4 3 cbr 1000 ------- 3 6.0 2.0 11 13
r 0.612533 4 3 cbr 1000 ------- 3 6.0 2.0 8 10
+ 0.6192 4 3 cbr 1000 ------- 3 6.0 2.0 12 14
- 0.6192 4 3 cbr 1000 ------- 3 6.0 2.0 12 14
r 0.620533 4 3 cbr 1000 ------- 3 6.0 2.0 9 11
+ 0.624139 4 3 tcp 1040 ------- 2 9.0 1.0 1 15
- 0.624533 4 3 tcp 1040 ------- 2 9.0 1.0 1 15
+ 0.625803 4 3 tcp 1040 ------- 2 9.0 1.0 2 16
+ 0.6272 4 3 cbr 1000 ------- 3 6.0 2.0 13 17
r 0.628533 4 3 cbr 1000 ------- 3 6.0 2.0 10 12
- 0.63008 4 3 tcp 1040 ------- 2 9.0 1.0 2 16
+ 0.6352 4 3 cbr 1000 ------- 3 6.0 2.0 14 18
- 0.635627 4 3 cbr 1000 ------- 3 6.0 2.0 13 17
r 0.636533 4 3 cbr 1000 ------- 3 6.0 2.0 11 13
- 0.64096 4 3 cbr 1000 ------- 3 6.0 2.0 14 18
+ 0.6432 4 3 cbr 1000 ------- 3 6.0 2.0 15 19
r 0.644533 4 3 cbr 1000 ------- 3 6.0 2.0 12 14
- 0.646293 4 3 cbr 1000 ------- 3 6.0 2.0 15 19
r 0.65008 4 3 tcp 1040 ------- 2 9.0 1.0 1 15
+ 0.6512 4 3 cbr 1000 ------- 3 6.0 2.0 16 20
- 0.651627 4 3 cbr 1000 ------- 3 6.0 2.0 16 20
r 0.655627 4 3 tcp 1040 ------- 2 9.0 1.0 2 16
+ 0.6592 4 3 cbr 1000 ------- 3 6.0 2.0 17 21
- 0.6592 4 3 cbr 1000 ------- 3 6.0 2.0 17 21
r 0.66096 4 3 cbr 1000 ------- 3 6.0 2.0 13 17
r 0.666293 4 3 cbr 1000 ------- 3 6.0 2.0 14 18
+ 0.6672 4 3 cbr 1000 ------- 3 6.0 2.0 18 22
- 0.6672 4 3 cbr 1000 ------- 3 6.0 2.0 18 22
r 0.671627 4 3 cbr 1000 ------- 3 6.0 2.0 15 19
+ 0.6752 4 3 cbr 1000 ------- 3 6.0 2.0 19 23
- 0.6752 4 3 cbr 1000 ------- 3 6.0 2.0 19 23
r 0.67696 4 3 cbr 1000 ------- 3 6.0 2.0 16 20
+ 0.6832 4 3 cbr 1000 ------- 3 6.0 2.0 20 24
- 0.6832 4 3 cbr 1000 ------- 3 6.0 2.0 20 24
r 0.684533 4 3 cbr 1000 ------- 3 6.0 2.0 17 21
+ 0.6912 4 3 cbr 1000 ------- 3 6.0 2.0 21 27
- 0.6912 4 3 cbr 1000 ------- 3 6.0 2.0 21 27
r 0.692533 4 3 cbr 1000 ------- 3 6.0 2.0 18 22
+ 0.6992 4 3 cbr 1000 ------- 3 6.0 2.0 22 28
- 0.6992 4 3 cbr 1000 ------- 3 6.0 2.0 22 28
r 0.700533 4 3 cbr 1000 ------- 3 6.0 2.0 19 23
+ 0.7072 4 3 cbr 1000 ------- 3 6.0 2.0 23 29
- 0.7072 4 3 cbr 1000 ------- 3 6.0 2.0 23 29
r 0.708533 4 3 cbr 1000 ------- 3 6.0 2.0 20 24
+ 0.7152 4 3 cbr 1000 ------- 3 6.0 2.0 24 30
- 0.7152 4 3 cbr 1000 ------- 3 6.0 2.0 24 30
r 0.716533 4 3 cbr 1000 ------- 3 6.0 2.0 21 27
+ 0.7232 4 3 cbr 1000 ------- 3 6.0 2.0 25 31
- 0.7232 4 3 cbr 1000 ------- 3 6.0 2.0 25 31
r 0.724533 4 3 cbr 1000 ------- 3 6.0 2.0 22 28
+ 0.7312 4 3 cbr 1000 ------- 3 6.0 2.0 26 32
- 0.7312 4 3 cbr 1000 ------- 3 6.0 2.0 26 32
r 0.732533 4 3 cbr 1000 ------- 3 6.0 2.0 23 29
+ 0.735477 4 3 tcp 1040 ------- 2 9.0 1.0 3 33
- 0.736533 4 3 tcp 1040 ------- 2 9.0 1.0 3 33
+ 0.737141 4 3 tcp 1040 ------- 2 9.0 1.0 4 34
+ 0.7392 4 3 cbr 1000 ------- 3 6.0 2.0 27 35
r 0.740533 4 3 cbr 1000 ------- 3 6.0 2.0 24 30
+ 0.741024 4 3 tcp 1040 ------- 2 9.0 1.0 5 36
- 0.74208 4 3 tcp 1040 ------- 2 9.0 1.0 4 34
+ 0.742688 4 3 tcp 1040 ------- 2 9.0 1.0 6 37
+ 0.7472 4 3 cbr 1000 ------- 3 6.0 2.0 28 38
- 0.747627 4 3 cbr 1000 ------- 3 6.0 2.0 27 35
r 0.748533 4 3 cbr 1000 ------- 3 6.0 2.0 25 31
- 0.75296 4 3 tcp 1040 ------- 2 9.0 1.0 5 36
+ 0.7552 4 3 cbr 1000 ------- 3 6.0 2.0 29 39
r 0.756533 4 3 cbr 1000 ------- 3 6.0 2.0 26 32
- 0.758507 4 3 tcp 1040 ------- 2 9.0 1.0 6 37
r 0.76208 4 3 tcp 1040 ------- 2 9.0 1.0 3 33
+ 0.7632 4 3 cbr 1000 ------- 3 6.0 2.0 30 40
- 0.764053 4 3 cbr 1000 ------- 3 6.0 2.0 28 38
r 0.767627 4 3 tcp 1040 ------- 2 9.0 1.0 4 34
- 0.769387 4 3 cbr 1000 ------- 3 6.0 2.0 29 39
+ 0.7712 4 3 cbr 1000 ------- 3 6.0 2.0 31 41
r 0.77296 4 3 cbr 1000 ------- 3 6.0 2.0 27 35
- 0.77472 4 3 cbr 1000 ------- 3 6.0 2.0 30 40
r 0.778507 4 3 tcp 1040 ------- 2 9.0 1.0 5 36
+ 0.7792 4 3 cbr 1000 ------- 3 6.0 2.0 32 42
- 0.780053 4 3 cbr 1000 ------- 3 6.0 2.0 31 41
r 0.784053 4 3 tcp 1040 ------- 2 9.0 1.0 6 37
- 0.785387 4 3 cbr 1000 ------- 3 6.0 2.0 32 42
+ 0.7872 4 3 cbr 1000 ------- 3 6.0 2.0 33 43
r 0.789387 4 3 cbr 1000 ------- 3 6.0 2.0 28 38
- 0.79072 4 3 cbr 1000 ------- 3 6.0 2.0 33 43
r 0.79472 4 3 cbr 1000 ------- 3 6.0 2.0 29 39
+ 0.7952 4 3 cbr 1000 ------- 3 6.0 2.0 34 44
- 0.796053 4 3 cbr 1000 ------- 3 6.0 2.0 34 44
r 0.800053 4 3 cbr 1000 ------- 3 6.0 2.0 30 40
+ 0.8032 4 3 cbr 1000 ------- 3 6.0 2.0 35 47
- 0.8032 4 3 cbr 1000 ------- 3 6.0 2.0 35 47
r 0.805387 4 3 cbr 1000 ------- 3 6.0 2.0 31 41
r 0.81072 4 3 cbr 1000 ------- 3 6.0 2.0 32 42
+ 0.8112 4 3 cbr 1000 ------- 3 6.0 2.0 36 48
- 0.8112 4 3 cbr 1000 ------- 3 6.0 2.0 36 48
r 0.816053 4 3 cbr 1000 ------- 3 6.0 2.0 33 43
+ 0.8192 4 3 cbr 1000 ------- 3 6.0 2.0 37 51
- 0.8192 4 3 cbr 1000 ------- 3 6.0 2.0 37 51
r 0.821387 4 3 cbr 1000 ------- 3 6.0 2.0 34 44
+ 0.8272 4 3 cbr 1000 ------- 3 6.0 2.0 38 52
- 0.8272 4 3 cbr 1000 ------- 3 6.0 2.0 38 52
r 0.828533 4 3 cbr 1000 ------- 3 6.0 2.0 35 47
+ 0.8352 4 3 cbr 1000 ------- 3 6.0 2.0 39 53
- 0.8352 4 3 cbr 1000 ------- 3 6.0 2.0 39 53
r 0.836533 4 3 cbr 1000 ------- 3 6.0 2.0 36 48
+ 0.8432 4 3 cbr 1000 ------- 3 6.0 2.0 40 54
- 0.8432 4 3 cbr 1000 ------- 3 6.0 2.0 40 54
r 0.844533 4 3 cbr 1000 ------- 3 6.0 2.0 37 51
+ 0.847477 4 3 tcp 1040 ------- 2 9.0 1.0 7 55
- 0.848533 4 3 tcp 1040 ------- 2 9.0 1.0 7 55
+ 0.849141 4 3 tcp 1040 ------- 2 9.0 1.0 8 56
+ 0.8512 4 3 cbr 1000 ------- 3 6.0 2.0 41 57
r 0.852533 4 3 cbr 1000 ------- 3 6.0 2.0 38 52
+ 0.853024 4 3 tcp 1040 ------- 2 9.0 1.0 9 58
- 0.85408 4 3 tcp 1040 ------- 2 9.0 1.0 8 56
+ 0.854688 4 3 tcp 1040 ------- 2 9.0 1.0 10 59
+ 0.8592 4 3 cbr 1000 ------- 3 6.0 2.0 42 60
- 0.859627 4 3 cbr 1000 ------- 3 6.0 2.0 41 57
r 0.860533 4 3 cbr 1000 ------- 3 6.0 2.0 39 53
+ 0.863904 4 3 tcp 1040 ------- 2 9.0 1.0 11 61
- 0.86496 4 3 tcp 1040 ------- 2 9.0 1.0 9 58
+ 0.865568 4 3 tcp 1040 ------- 2 9.0 1.0 12 62
+ 0.8672 4 3 cbr 1000 ------- 3 6.0 2.0 43 63
r 0.868533 4 3 cbr 1000 ------- 3 6.0 2.0 40 54
+ 0.869451 4 3 tcp 1040 ------- 2 9.0 1.0 13 64
- 0.870507 4 3 tcp 1040 ------- 2 9.0 1.0 10 59
+ 0.871115 4 3 tcp 1040 ------- 2 9.0 1.0 14 65
r 0.87408 4 3 tcp 1040 ------- 2 9.0 1.0 7 55
+ 0.8752 4 3 cbr 1000 ------- 3 6.0 2.0 44 66
- 0.876053 4 3 cbr 1000 ------- 3 6.0 2.0 42 60
r 0.879627 4 3 tcp 1040 ------- 2 9.0 1.0 8 56
- 0.881387 4 3 tcp 1040 ------- 2 9.0 1.0 11 61
+ 0.8832 4 3 cbr 1000 ------- 3 6.0 2.0 45 67
r 0.88496 4 3 cbr 1000 ------- 3 6.0 2.0 41 57
- 0.886933 4 3 tcp 1040 ------- 2 9.0 1.0 12 62
r 0.890507 4 3 tcp 1040 ------- 2 9.0 1.0 9 58
+ 0.8912 4 3 cbr 1000 ------- 3 6.0 2.0 46 68
- 0.89248 4 3 cbr 1000 ------- 3 6.0 2.0 43 63
r 0.896053 4 3 tcp 1040 ------- 2 9.0 1.0 10 59
- 0.897813 4 3 tcp 1040 ------- 2 9.0 1.0 13 64
+ 0.8992 4 3 cbr 1000 ------- 3 6.0 2.0 47 69
r 0.901387 4 3 cbr 1000 ------- 3 6.0 2.0 42 60
- 0.90336 4 3 tcp 1040 ------- 2 9.0 1.0 14 65
r 0.906933 4 3 tcp 1040 ------- 2 9.0 1.0 11 61
+ 0.9072 4 3 cbr 1000 ------- 3 6.0 2.0 48 70
- 0.908907 4 3 cbr 1000 ------- 3 6.0 2.0 44 66
r 0.91248 4 3 tcp 1040 ------- 2 9.0 1.0 12 62
- 0.91424 4 3 cbr 1000 ------- 3 6.0 2.0 45 67
+ 0.9152 4 3 cbr 1000 ------- 3 6.0 2.0 49 73
r 0.917813 4 3 cbr 1000 ------- 3 6.0 2.0 43 63
- 0.919573 4 3 cbr 1000 ------- 3 6.0 2.0 46 68
+ 0.9232 4 3 cbr 1000 ------- 3 6.0 2.0 50 74
r 0.92336 4 3 tcp 1040 ------- 2 9.0 1.0 13 64
- 0.924907 4 3 cbr 1000 ------- 3 6.0 2.0 47 69
r 0.928907 4 3 tcp 1040 ------- 2 9.0 1.0 14 65
- 0.93024 4 3 cbr 1000 ------- 3 6.0 2.0 48 70
+ 0.9312 4 3 cbr 1000 ------- 3 6.0 2.0 51 77
r 0.93424 4 3 cbr 1000 ------- 3 6.0 2.0 44 66
- 0.935573 4 3 cbr 1000 ------- 3 6.0 2.0 49 73
+ 0.9392 4 3 cbr 1000 ------- 3 6.0 2.0 52 78
r 0.939573 4 3 cbr 1000 ------- 3 6.0 2.0 45 67
- 0.940907 4 3 cbr 1000 ------- 3 6.0 2.0 50 74
r 0.944907 4 3 cbr 1000 ------- 3 6.0 2.0 46 68
- 0.94624 4 3 cbr 1000 ------- 3 6.0 2.0 51 77
+ 0.9472 4 3 cbr 1000 ------- 3 6.0 2.0 53 80
r 0.95024 4 3 cbr 1000 ------- 3 6.0 2.0 47 69
- 0.951573 4 3 cbr 1000 ------- 3 6.0 2.0 52 78
+ 0.9552 4 3 cbr 1000 ------- 3 6.0 2.0 54 82
r 0.955573 4 3 cbr 1000 ------- 3 6.0 2.0 48 70
- 0.956907 4 3 cbr 1000 ------- 3 6.0 2.0 53 80
+ 0.959477 4 3 tcp 1040 ------- 2 9.0 1.0 15 84
r 0.960907 4 3 cbr 1000 ------- 3 6.0 2.0 49 73
+ 0.961141 4 3 tcp 1040 ------- 2 9.0 1.0 16 85
- 0.96224 4 3 cbr 1000 ------- 3 6.0 2.0 54 82
+ 0.9632 4 3 cbr 1000 ------- 3 6.0 2.0 55 86
+ 0.965024 4 3 tcp 1040 ------- 2 9.0 1.0 17 88
r 0.96624 4 3 cbr 1000 ------- 3 6.0 2.0 50 74
+ 0.966688 4 3 tcp 1040 ------- 2 9.0 1.0 18 89
- 0.967573 4 3 tcp 1040 ------- 2 9.0 1.0 15 84
+ 0.9712 4 3 cbr 1000 ------- 3 6.0 2.0 56 90
r 0.971573 4 3 cbr 1000 ------- 3 6.0 2.0 51 77
- 0.97312 4 3 tcp 1040 ------- 2 9.0 1.0 16 85
+ 0.975904 4 3 tcp 1040 ------- 2 9.0 1.0 19 91
r 0.976907 4 3 cbr 1000 ------- 3 6.0 2.0 52 78
+ 0.977568 4 3 tcp 1040 ------- 2 9.0 1.0 20 92
- 0.978667 4 3 cbr 1000 ------- 3 6.0 2.0 55 86
+ 0.9792 4 3 cbr 1000 ------- 3 6.0 2.0 57 93
+ 0.981451 4 3 tcp 1040 ------- 2 9.0 1.0 21 94
r 0.98224 4 3 cbr 1000 ------- 3 6.0 2.0 53 80
+ 0.983115 4 3 tcp 1040 ------- 2 9.0 1.0 22 95
- 0.984 4 3 tcp 1040 ------- 2 9.0 1.0 17 88
+ 0.9872 4 3 cbr 1000 ------- 3 6.0 2.0 58 96
r 0.987573 4 3 cbr 1000 ------- 3 6.0 2.0 54 82
- 0.989547 4 3 tcp 1040 ------- 2 9.0 1.0 18 89
+ 0.992331 4 3 tcp 1040 ------- 2 9.0 1.0 23 97
r 0.99312 4 3 tcp 1040 ------- 2 9.0 1.0 15 84
+ 0.993995 4 3 tcp 1040 ------- 2 9.0 1.0 24 98
- 0.995093 4 3 cbr 1000 ------- 3 6.0 2.0 56 90
+ 0.9952 4 3 cbr 1000 ------- 3 6.0 2.0 59 99
+ 0.997877 4 3 tcp 1040 ------- 2 9.0 1.0 25 100
r 0.998667 4 3 tcp 1040 ------- 2 9.0 1.0 16 85
+ 0.999541 4 3 tcp 1040 ------- 2 9.0 1.0 26 101
- 1.000427 4 3 tcp 1040 ------- 2 9.0 1.0 19 91
+ 1.0032 4 3 cbr 1000 ------- 3 6.0 2.0 60 102
r 1.004 4 3 cbr 1000 ------- 3 6.0 2.0 55 86
- 1.005973 4 3 tcp 1040 ------- 2 9.0 1.0 20 92
+ 1.008757 4 3 tcp 1040 ------- 2 9.0 1.0 27 103
r 1.009547 4 3 tcp 1040 ------- 2 9.0 1.0 17 88
+ 1.010421 4 3 tcp 1040 ------- 2 9.0 1.0 28 104
+ 1.0112 4 3 cbr 1000 ------- 3 6.0 2.0 61 105
- 1.01152 4 3 cbr 1000 ------- 3 6.0 2.0 57 93
+ 1.014304 4 3 tcp 1040 ------- 2 9.0 1.0 29 106
r 1.015093 4 3 tcp 1040 ------- 2 9.0 1.0 18 89
+ 1.015968 4 3 tcp 1040 ------- 2 9.0 1.0 30 107
- 1.016853 4 3 tcp 1040 ------- 2 9.0 1.0 21 94
+ 1.0192 4 3 cbr 1000 ------- 3 6.0 2.0 62 108
r 1.020427 4 3 cbr 1000 ------- 3 6.0 2.0 56 90
- 1.0224 4 3 tcp 1040 ------- 2 9.0 1.0 22 95
+ 1.0232 4 3 cbr 1000 ------- 1 8.0 0.0 0 109
+ 1.0248 4 3 cbr 1000 ------- 1 8.0 0.0 1 110
r 1.025973 4 3 tcp 1040 ------- 2 9.0 1.0 19 91
+ 1.0272 4 3 cbr 1000 ------- 3 6.0 2.0 63 111
- 1.027947 4 3 cbr 1000 ------- 3 6.0 2.0 58 96
+ 1.028533 4 3 cbr 1000 ------- 1 8.0 0.0 2 113
+ 1.030133 4 3 cbr 1000 ------- 1 8.0 0.0 3 114
r 1.03152 4 3 tcp 1040 ------- 2 9.0 1.0 20 92
- 1.03328 4 3 tcp 1040 ------- 2 9.0 1.0 23 97
+ 1.033867 4 3 cbr 1000 ------- 1 8.0 0.0 4 116
+ 1.0352 4 3 cbr 1000 ------- 3 6.0 2.0 64 118
+ 1.035467 4 3 cbr 1000 ------- 1 8.0 0.0 5 117
r 1.036853 4 3 cbr 1000 ------- 3 6.0 2.0 57 93
- 1.038827 4 3 tcp 1040 ------- 2 9.0 1.0 24 98
+ 1.0392 4 3 cbr 1000 ------- 1 8.0 0.0 6 119
+ 1.0408 4 3 cbr 1000 ------- 1 8.0 0.0 7 120
r 1.0424 4 3 tcp 1040 ------- 2 9.0 1.0 21 94
+ 1.0432 4 3 cbr 1000 ------- 3 6.0 2.0 65 121
- 1.044373 4 3 cbr 1000 ------- 3 6.0 2.0 59 99
+ 1.044533 4 3 cbr 1000 ------- 1 8.0 0.0 8 123
+ 1.046133 4 3 cbr 1000 ------- 1 8.0 0.0 9 124
r 1.047947 4 3 tcp 1040 ------- 2 9.0 1.0 22 95
- 1.049707 4 3 tcp 1040 ------- 2 9.0 1.0 25 100
+ 1.049867 4 3 cbr 1000 ------- 1 8.0 0.0 10 125
+ 1.0512 4 3 cbr 1000 ------- 3 6.0 2.0 66 128
+ 1.051467 4 3 cbr 1000 ------- 1 8.0 0.0 11 126
r 1.05328 4 3 cbr 1000 ------- 3 6.0 2.0 58 96
+ 1.0552 4 3 cbr 1000 ------- 1 8.0 0.0 12 129
- 1.055253 4 3 tcp 1040 ------- 2 9.0 1.0 26 101
+ 1.0568 4 3 cbr 1000 ------- 1 8.0 0.0 13 130
r 1.058827 4 3 tcp 1040 ------- 2 9.0 1.0 23 97
+ 1.0592 4 3 cbr 1000 ------- 3 6.0 2.0 67 131
+ 1.060533 4 3 cbr 1000 ------- 1 8.0 0.0 14 132
- 1.0608 4 3 cbr 1000 ------- 3 6.0 2.0 60 102
+ 1.062133 4 3 cbr 1000 ------- 1 8.0 0.0 15 133
r 1.064373 4 3 tcp 1040 ------- 2 9.0 1.0 24 98
+ 1.065867 4 3 cbr 1000 ------- 1 8.0 0.0 16 135
- 1.066133 4 3 tcp 1040 ------- 2 9.0 1.0 27 103
+ 1.0672 4 3 cbr 1000 ------- 3 6.0 2.0 68 138
+ 1.067467 4 3 cbr 1000 ------- 1 8.0 0.0 17 136
r 1.069707 4 3 cbr 1000 ------- 3 6.0 2.0 59 99
+ 1.0712 4 3 cbr 1000 ------- 1 8.0 0.0 18 139
- 1.07168 4 3 tcp 1040 ------- 2 9.0 1.0 28 104
+ 1.0728 4 3 cbr 1000 ------- 1 8.0 0.0 19 140
+ 1.0752 4 3 cbr 1000 ------- 3 6.0 2.0 69 141
r 1.075253 4 3 tcp 1040 ------- 2 9.0 1.0 25 100
+ 1.076533 4 3 cbr 1000 ------- 1 8.0 0.0 20 142
- 1.077227 4 3 cbr 1000 ------- 3 6.0 2.0 61 105
+ 1.078133 4 3 cbr 1000 ------- 1 8.0 0.0 21 143
+ 1.079797 4 3 tcp 1040 ------- 2 9.0 1.0 31 145
r 1.0808 4 3 tcp 1040 ------- 2 9.0 1.0 26 101
+ 1.081461 4 3 tcp 1040 ------- 2 9.0 1.0 32 146
- 1.08256 4 3 tcp 1040 ------- 2 9.0 1.0 29 106
+ 1.083061 4 3 cbr 1000 ------- 1 8.0 0.0 22 147
+ 1.0832 4 3 cbr 1000 ------- 3 6.0 2.0 70 150
+ 1.084661 4 3 cbr 1000 ------- 1 8.0 0.0 23 148
r 1.086133 4 3 cbr 1000 ------- 3 6.0 2.0 60 102
+ 1.086325 4 3 tcp 1040 ------- 2 9.0 1.0 33 151
+ 1.087989 4 3 tcp 1040 ------- 2 9.0 1.0 34 152
- 1.088107 4 3 tcp 1040 ------- 2 9.0 1.0 30 107
+ 1.089589 4 3 cbr 1000 ------- 1 8.0 0.0 24 153
+ 1.091189 4 3 cbr 1000 ------- 1 8.0 0.0 25 154
+ 1.0912 4 3 cbr 1000 ------- 3 6.0 2.0 71 155
r 1.09168 4 3 tcp 1040 ------- 2 9.0 1.0 27 103
+ 1.092789 4 3 cbr 1000 ------- 1 8.0 0.0 26 156
- 1.093653 4 3 cbr 1000 ------- 3 6.0 2.0 62 108
+ 1.094389 4 3 cbr 1000 ------- 1 8.0 0.0 27 157
+ 1.096053 4 3 tcp 1040 ------- 2 9.0 1.0 35 159
r 1.097227 4 3 tcp 1040 ------- 2 9.0 1.0 28 104
+ 1.097717 4 3 tcp 1040 ------- 2 9.0 1.0 36 160
- 1.098987 4 3 cbr 1000 ------- 1 8.0 0.0 0 109
+ 1.0992 4 3 cbr 1000 ------- 3 6.0 2.0 72 163
+ 1.099317 4 3 cbr 1000 ------- 1 8.0 0.0 28 161
+ 1.100917 4 3 cbr 1000 ------- 1 8.0 0.0 29 162
r 1.10256 4 3 cbr 1000 ------- 3 6.0 2.0 61 105
+ 1.102581 4 3 tcp 1040 ------- 2 9.0 1.0 37 165
+ 1.104245 4 3 tcp 1040 ------- 2 9.0 1.0 38 166
- 1.10432 4 3 cbr 1000 ------- 1 8.0 0.0 1 110
+ 1.105845 4 3 cbr 1000 ------- 1 8.0 0.0 30 167
+ 1.1072 4 3 cbr 1000 ------- 3 6.0 2.0 73 169
+ 1.107445 4 3 cbr 1000 ------- 1 8.0 0.0 31 168
r 1.108107 4 3 tcp 1040 ------- 2 9.0 1.0 29 106
+ 1.109045 4 3 cbr 1000 ------- 1 8.0 0.0 32 170
d 1.109045 4 3 cbr 1000 ------- 1 8.0 0.0 32 170
- 1.109653 4 3 cbr 1000 ------- 3 6.0 2.0 63 111
+ 1.110645 4 3 cbr 1000 ------- 1 8.0 0.0 33 171
+ 1.112309 4 3 tcp 1040 ------- 2 9.0 1.0 39 173
d 1.112309 4 3 tcp 1040 ------- 2 9.0 1.0 39 173
r 1.113653 4 3 tcp 1040 ------- 2 9.0 1.0 30 107
+ 1.113909 4 3 cbr 1000 ------- 1 8.0 0.0 34 174
d 1.113909 4 3 cbr 1000 ------- 1 8.0 0.0 34 174
- 1.114987 4 3 cbr 1000 ------- 1 8.0 0.0 2 113
+ 1.1152 4 3 cbr 1000 ------- 3 6.0 2.0 74 176
+ 1.115509 4 3 cbr 1000 ------- 1 8.0 0.0 35 175
d 1.115509 4 3 cbr 1000 ------- 1 8.0 0.0 35 175
+ 1.117173 4 3 tcp 1040 ------- 2 9.0 1.0 40 178
d 1.117173 4 3 tcp 1040 ------- 2 9.0 1.0 40 178
r 1.118987 4 3 cbr 1000 ------- 3 6.0 2.0 62 108
+ 1.1192 4 3 cbr 1000 ------- 1 8.0 0.0 36 179
d 1.1192 4 3 cbr 1000 ------- 1 8.0 0.0 36 179
- 1.12032 4 3 cbr 1000 ------- 1 8.0 0.0 3 114
+ 1.1208 4 3 cbr 1000 ------- 1 8.0 0.0 37 180
+ 1.1232 4 3 cbr 1000 ------- 3 6.0 2.0 75 181
d 1.1232 4 3 cbr 1000 ------- 3 6.0 2.0 75 181
r 1.12432 4 3 cbr 1000 ------- 1 8.0 0.0 0 109
+ 1.124533 4 3 cbr 1000 ------- 1 8.0 0.0 38 182
d 1.124533 4 3 cbr 1000 ------- 1 8.0 0.0 38 182
- 1.125653 4 3 cbr 1000 ------- 1 8.0 0.0 4 116
+ 1.126133 4 3 cbr 1000 ------- 1 8.0 0.0 39 183
+ 1.127797 4 3 tcp 1040 ------- 2 9.0 1.0 41 185
d 1.127797 4 3 tcp 1040 ------- 2 9.0 1.0 41 185
r 1.129653 4 3 cbr 1000 ------- 1 8.0 0.0 1 110
+ 1.129867 4 3 cbr 1000 ------- 1 8.0 0.0 40 186
d 1.129867 4 3 cbr 1000 ------- 1 8.0 0.0 40 186
- 1.130987 4 3 cbr 1000 ------- 3 6.0 2.0 64 118
+ 1.1312 4 3 cbr 1000 ------- 3 6.0 2.0 76 188
+ 1.131467 4 3 cbr 1000 ------- 1 8.0 0.0 41 187
d 1.131467 4 3 cbr 1000 ------- 1 8.0 0.0 41 187
+ 1.133344 4 3 tcp 1040 ------- 2 9.0 1.0 42 190
d 1.133344 4 3 tcp 1040 ------- 2 9.0 1.0 42 190
r 1.134987 4 3 cbr 1000 ------- 3 6.0 2.0 63 111
+ 1.1352 4 3 cbr 1000 ------- 1 8.0 0.0 42 191
d 1.1352 4 3 cbr 1000 ------- 1 8.0 0.0 42 191
- 1.13632 4 3 cbr 1000 ------- 1 8.0 0.0 5 117
+ 1.1368 4 3 cbr 1000 ------- 1 8.0 0.0 43 192
+ 1.1392 4 3 cbr 1000 ------- 3 6.0 2.0 77 193
d 1.1392 4 3 cbr 1000 ------- 3 6.0 2.0 77 193
r 1.14032 4 3 cbr 1000 ------- 1 8.0 0.0 2 113
+ 1.140533 4 3 cbr 1000 ------- 1 8.0 0.0 44 194
d 1.140533 4 3 cbr 1000 ------- 1 8.0 0.0 44 194
- 1.141653 4 3 cbr 1000 ------- 1 8.0 0.0 6 119
+ 1.142133 4 3 cbr 1000 ------- 1 8.0 0.0 45 195
+ 1.144224 4 3 tcp 1040 ------- 2 9.0 1.0 43 197
d 1.144224 4 3 tcp 1040 ------- 2 9.0 1.0 43 197
r 1.145653 4 3 cbr 1000 ------- 1 8.0 0.0 3 114
+ 1.145867 4 3 cbr 1000 ------- 1 8.0 0.0 46 198
d 1.145867 4 3 cbr 1000 ------- 1 8.0 0.0 46 198
- 1.146987 4 3 cbr 1000 ------- 1 8.0 0.0 7 120
+ 1.1472 4 3 cbr 1000 ------- 3 6.0 2.0 78 200
+ 1.147467 4 3 cbr 1000 ------- 1 8.0 0.0 47 199
d 1.147467 4 3 cbr 1000 ------- 1 8.0 0.0 47 199
+ 1.149771 4 3 tcp 1040 ------- 2 9.0 1.0 44 202
d 1.149771 4 3 tcp 1040 ------- 2 9.0 1.0 44 202
r 1.150987 4 3 cbr 1000 ------- 1 8.0 0.0 4 116
+ 1.151371 4 3 cbr 1000 ------- 1 8.0 0.0 48 203
d 1.151371 4 3 cbr 1000 ------- 1 8.0 0.0 48 203
- 1.15232 4 3 cbr 1000 ------- 3 6.0 2.0 65 121
+ 1.152971 4 3 cbr 1000 ------- 1 8.0 0.0 49 204
+ 1.1552 4 3 cbr 1000 ------- 3 6.0 2.0 79 205
d 1.1552 4 3 cbr 1000 ------- 3 6.0 2.0 79 205
r 1.15632 4 3 cbr 1000 ------- 3 6.0 2.0 64 118
+ 1.156533 4 3 cbr 1000 ------- 1 8.0 0.0 50 206
d 1.156533 4 3 cbr 1000 ------- 1 8.0 0.0 50 206
- 1.157653 4 3 cbr 1000 ------- 1 8.0 0.0 8 123
+ 1.158133 4 3 cbr 1000 ------- 1 8.0 0.0 51 207
+ 1.160651 4 3 tcp 1040 ------- 2 9.0 1.0 45 208
d 1.160651 4 3 tcp 1040 ------- 2 9.0 1.0 45 208
r 1.161653 4 3 cbr 1000 ------- 1 8.0 0.0 5 117
+ 1.162251 4 3 cbr 1000 ------- 1 8.0 0.0 52 209
d 1.162251 4 3 cbr 1000 ------- 1 8.0 0.0 52 209
- 1.162987 4 3 cbr 1000 ------- 1 8.0 0.0 9 124
+ 1.1632 4 3 cbr 1000 ------- 3 6.0 2.0 80 211
+ 1.163851 4 3 cbr 1000 ------- 1 8.0 0.0 53 210
d 1.163851 4 3 cbr 1000 ------- 1 8.0 0.0 53 210
+ 1.166197 4 3 tcp 1040 ------- 2 9.0 1.0 46 212
d 1.166197 4 3 tcp 1040 ------- 2 9.0 1.0 46 212
r 1.166987 4 3 cbr 1000 ------- 1 8.0 0.0 6 119
+ 1.167797 4 3 cbr 1000 ------- 1 8.0 0.0 54 213
d 1.167797 4 3 cbr 1000 ------- 1 8.0 0.0 54 213
- 1.16832 4 3 cbr 1000 ------- 1 8.0 0.0 10 125
+ 1.169397 4 3 cbr 1000 ------- 1 8.0 0.0 55 214
+ 1.1712 4 3 cbr 1000 ------- 3 6.0 2.0 81 215
d 1.1712 4 3 cbr 1000 ------- 3 6.0 2.0 81 215
r 1.17232 4 3 cbr 1000 ------- 1 8.0 0.0 7 120
+ 1.172533 4 3 cbr 1000 ------- 1 8.0 0.0 56 216
d 1.172533 4 3 cbr 1000 ------- 1 8.0 0.0 56 216
- 1.173653 4 3 cbr 1000 ------- 3 6.0 2.0 66 128
+ 1.174133 4 3 cbr 1000 ------- 1 8.0 0.0 57 217
+ 1.177077 4 3 tcp 1040 ------- 2 9.0 1.0 47 218
d 1.177077 4 3 tcp 1040 ------- 2 9.0 1.0 47 218
r 1.177653 4 3 cbr 1000 ------- 3 6.0 2.0 65 121
+ 1.178677 4 3 cbr 1000 ------- 1 8.0 0.0 58 219
d 1.178677 4 3 cbr 1000 ------- 1 8.0 0.0 58 219
- 1.178987 4 3 cbr 1000 ------- 1 8.0 0.0 11 126
+ 1.1792 4 3 cbr 1000 ------- 3 6.0 2.0 82 221
+ 1.180277 4 3 cbr 1000 ------- 1 8.0 0.0 59 220
d 1.180277 4 3 cbr 1000 ------- 1 8.0 0.0 59 220
+ 1.182624 4 3 tcp 1040 ------- 2 9.0 1.0 48 222
d 1.182624 4 3 tcp 1040 ------- 2 9.0 1.0 48 222
r 1.182987 4 3 cbr 1000 ------- 1 8.0 0.0 8 123
+ 1.184224 4 3 cbr 1000 ------- 1 8.0 0.0 60 223
d 1.184224 4 3 cbr 1000 ------- 1 8.0 0.0 60 223
- 1.18432 4 3 cbr 1000 ------- 1 8.0 0.0 12 129
+ 1.185824 4 3 cbr 1000 ------- 1 8.0 0.0 61 224
+ 1.1872 4 3 cbr 1000 ------- 3 6.0 2.0 83 225
d 1.1872 4 3 cbr 1000 ------- 3 6.0 2.0 83 225
r 1.18832 4 3 cbr 1000 ------- 1 8.0 0.0 9 124
+ 1.188533 4 3 cbr 1000 ------- 1 8.0 0.0 62 226
d 1.188533 4 3 cbr 1000 ------- 1 8.0 0.0 62 226
- 1.189653 4 3 cbr 1000 ------- 1 8.0 0.0 13 130
+ 1.190133 4 3 cbr 1000 ------- 1 8.0 0.0 63 227
+ 1.193504 4 3 tcp 1040 ------- 2 9.0 1.0 49 228
d 1.193504 4 3 tcp 1040 ------- 2 9.0 1.0 49 228
r 1.193653 4 3 cbr 1000 ------- 1 8.0 0.0 10 125
- 1.194987 4 3 cbr 1000 ------- 3 6.0 2.0 67 131
+ 1.195104 4 3 cbr 1000 ------- 1 8.0 0.0 64 229
+ 1.1952 4 3 cbr 1000 ------- 3 6.0 2.0 84 231
d 1.1952 4 3 cbr 1000 ------- 3 6.0 2.0 84 231
+ 1.196704 4 3 cbr 1000 ------- 1 8.0 0.0 65 230
d 1.196704 4 3 cbr 1000 ------- 1 8.0 0.0 65 230
r 1.198987 4 3 cbr 1000 ------- 3 6.0 2.0 66 128
+ 1.199051 4 3 tcp 1040 ------- 2 9.0 1.0 50 232
d 1.199051 4 3 tcp 1040 ------- 2 9.0 1.0 50 232
- 1.20032 4 3 cbr 1000 ------- 1 8.0 0.0 14 132
+ 1.200651 4 3 cbr 1000 ------- 1 8.0 0.0 66 233
+ 1.202251 4 3 cbr 1000 ------- 1 8.0 0.0 67 234
d 1.202251 4 3 cbr 1000 ------- 1 8.0 0.0 67 234
+ 1.2032 4 3 cbr 1000 ------- 3 6.0 2.0 85 235
d 1.2032 4 3 cbr 1000 ------- 3 6.0 2.0 85 235
r 1.20432 4 3 cbr 1000 ------- 1 8.0 0.0 11 126
+ 1.204533 4 3 cbr 1000 ------- 1 8.0 0.0 68 236
d 1.204533 4 3 cbr 1000 ------- 1 8.0 0.0 68 236
- 1.205653 4 3 cbr 1000 ------- 1 8.0 0.0 15 133
+ 1.206133 4 3 cbr 1000 ------- 1 8.0 0.0 69 237
r 1.209653 4 3 cbr 1000 ------- 1 8.0 0.0 12 129
+ 1.209867 4 3 cbr 1000 ------- 1 8.0 0.0 70 238
d 1.209867 4 3 cbr 1000 ------- 1 8.0 0.0 70 238
- 1.210987 4 3 cbr 1000 ------- 1 8.0 0.0 16 135
+ 1.2112 4 3 cbr 1000 ------- 3 6.0 2.0 86 240
+ 1.211467 4 3 cbr 1000 ------- 1 8.0 0.0 71 239
d 1.211467 4 3 cbr 1000 ------- 1 8.0 0.0 71 239
r 1.214987 4 3 cbr 1000 ------- 1 8.0 0.0 13 130
+ 1.2152 4 3 cbr 1000 ------- 1 8.0 0.0 72 241
d 1.2152 4 3 cbr 1000 ------- 1 8.0 0.0 72 241
- 1.21632 4 3 cbr 1000 ------- 3 6.0 2.0 68 138
+ 1.2168 4 3 cbr 1000 ------- 1 8.0 0.0 73 242
+ 1.2192 4 3 cbr 1000 ------- 3 6.0 2.0 87 243
d 1.2192 4 3 cbr 1000 ------- 3 6.0 2.0 87 243
r 1.22032 4 3 cbr 1000 ------- 3 6.0 2.0 67 131
+ 1.220533 4 3 cbr 1000 ------- 1 8.0 0.0 74 244
d 1.220533 4 3 cbr 1000 ------- 1 8.0 0.0 74 244
- 1.221653 4 3 cbr 1000 ------- 1 8.0 0.0 17 136
+ 1.222133 4 3 cbr 1000 ------- 1 8.0 0.0 75 245
r 1.225653 4 3 cbr 1000 ------- 1 8.0 0.0 14 132
+ 1.225867 4 3 cbr 1000 ------- 1 8.0 0.0 76 246
d 1.225867 4 3 cbr 1000 ------- 1 8.0 0.0 76 246
- 1.226987 4 3 cbr 1000 ------- 1 8.0 0.0 18 139
+ 1.2272 4 3 cbr 1000 ------- 3 6.0 2.0 88 248
+ 1.227467 4 3 cbr 1000 ------- 1 8.0 0.0 77 247
d 1.227467 4 3 cbr 1000 ------- 1 8.0 0.0 77 247
r 1.230987 4 3 cbr 1000 ------- 1 8.0 0.0 15 133
+ 1.2312 4 3 cbr 1000 ------- 1 8.0 0.0 78 249
d 1.2312 4 3 cbr 1000 ------- 1 8.0 0.0 78 249
- 1.23232 4 3 cbr 1000 ------- 1 8.0 0.0 19 140
+ 1.2328 4 3 cbr 1000 ------- 1 8.0 0.0 79 250
+ 1.2352 4 3 cbr 1000 ------- 3 6.0 2.0 89 251
d 1.2352 4 3 cbr 1000 ------- 3 6.0 2.0 89 251
r 1.23632 4 3 cbr 1000 ------- 1 8.0 0.0 16 135
+ 1.236533 4 3 cbr 1000 ------- 1 8.0 0.0 80 252
d 1.236533 4 3 cbr 1000 ------- 1 8.0 0.0 80 252
- 1.237653 4 3 cbr 1000 ------- 3 6.0 2.0 69 141
+ 1.238133 4 3 cbr 1000 ------- 1 8.0 0.0 81 253
r 1.241653 4 3 cbr 1000 ------- 3 6.0 2.0 68 138
+ 1.241867 4 3 cbr 1000 ------- 1 8.0 0.0 82 254
d 1.241867 4 3 cbr 1000 ------- 1 8.0 0.0 82 254
- 1.242987 4 3 cbr 1000 ------- 1 8.0 0.0 20 142
+ 1.2432 4 3 cbr 1000 ------- 3 6.0 2.0 90 256
+ 1.243467 4 3 cbr 1000 ------- 1 8.0 0.0 83 255
d 1.243467 4 3 cbr 1000 ------- 1 8.0 0.0 83 255
r 1.246987 4 3 cbr 1000 ------- 1 8.0 0.0 17 136
+ 1.2472 4 3 cbr 1000 ------- 1 8.0 0.0 84 257
d 1.2472 4 3 cbr 1000 ------- 1 8.0 0.0 84 257
- 1.24832 4 3 cbr 1000 ------- 1 8.0 0.0 21 143
+ 1.2488 4 3 cbr 1000 ------- 1 8.0 0.0 85 258
+ 1.2512 4 3 cbr 1000 ------- 3 6.0 2.0 91 259
d 1.2512 4 3 cbr 1000 ------- 3 6.0 2.0 91 259
r 1.25232 4 3 cbr 1000 ------- 1 8.0 0.0 18 139
+ 1.252533 4 3 cbr 1000 ------- 1 8.0 0.0 86 260
d 1.252533 4 3 cbr 1000 ------- 1 8.0 0.0 86 260
- 1.253653 4 3 tcp 1040 ------- 2 9.0 1.0 31 145
+ 1.254133 4 3 cbr 1000 ------- 1 8.0 0.0 87 261
r 1.257653 4 3 cbr 1000 ------- 1 8.0 0.0 19 140
+ 1.257867 4 3 cbr 1000 ------- 1 8.0 0.0 88 262
d 1.257867 4 3 cbr 1000 ------- 1 8.0 0.0 88 262
+ 1.2592 4 3 cbr 1000 ------- 3 6.0 2.0 92 264
d 1.2592 4 3 cbr 1000 ------- 3 6.0 2.0 92 264
- 1.2592 4 3 tcp 1040 ------- 2 9.0 1.0 32 146
+ 1.259467 4 3 cbr 1000 ------- 1 8.0 0.0 89 263
r 1.262987 4 3 cbr 1000 ------- 3 6.0 2.0 69 141
+ 1.2632 4 3 cbr 1000 ------- 1 8.0 0.0 90 265
d 1.2632 4 3 cbr 1000 ------- 1 8.0 0.0 90 265
- 1.264747 4 3 cbr 1000 ------- 1 8.0 0.0 22 147
+ 1.2648 4 3 cbr 1000 ------- 1 8.0 0.0 91 266
+ 1.2672 4 3 cbr 1000 ------- 3 6.0 2.0 93 267
d 1.2672 4 3 cbr 1000 ------- 3 6.0 2.0 93 267
r 1.26832 4 3 cbr 1000 ------- 1 8.0 0.0 20 142
+ 1.268533 4 3 cbr 1000 ------- 1 8.0 0.0 92 268
d 1.268533 4 3 cbr 1000 ------- 1 8.0 0.0 92 268
- 1.27008 4 3 cbr 1000 ------- 3 6.0 2.0 70 150
+ 1.270133 4 3 cbr 1000 ------- 1 8.0 0.0 93 269
r 1.273653 4 3 cbr 1000 ------- 1 8.0 0.0 21 143
+ 1.273867 4 3 cbr 1000 ------- 1 8.0 0.0 94 270
d 1.273867 4 3 cbr 1000 ------- 1 8.0 0.0 94 270
+ 1.2752 4 3 cbr 1000 ------- 3 6.0 2.0 94 272
d 1.2752 4 3 cbr 1000 ------- 3 6.0 2.0 94 272
- 1.275413 4 3 cbr 1000 ------- 1 8.0 0.0 23 148
+ 1.275467 4 3 cbr 1000 ------- 1 8.0 0.0 95 271
r 1.2792 4 3 tcp 1040 ------- 2 9.0 1.0 31 145
+ 1.2792 4 3 cbr 1000 ------- 1 8.0 0.0 96 273
d 1.2792 4 3 cbr 1000 ------- 1 8.0 0.0 96 273
- 1.280747 4 3 tcp 1040 ------- 2 9.0 1.0 33 151
+ 1.2808 4 3 cbr 1000 ------- 1 8.0 0.0 97 274
+ 1.2832 4 3 cbr 1000 ------- 3 6.0 2.0 95 275
d 1.2832 4 3 cbr 1000 ------- 3 6.0 2.0 95 275
+ 1.284533 4 3 cbr 1000 ------- 1 8.0 0.0 98 276
d 1.284533 4 3 cbr 1000 ------- 1 8.0 0.0 98 276
r 1.284747 4 3 tcp 1040 ------- 2 9.0 1.0 32 146
+ 1.286133 4 3 cbr 1000 ------- 1 8.0 0.0 99 277
d 1.286133 4 3 cbr 1000 ------- 1 8.0 0.0 99 277
- 1.286293 4 3 tcp 1040 ------- 2 9.0 1.0 34 152
+ 1.289867 4 3 cbr 1000 ------- 1 8.0 0.0 100 278
r 1.29008 4 3 cbr 1000 ------- 1 8.0 0.0 22 147
+ 1.2912 4 3 cbr 1000 ------- 3 6.0 2.0 96 280
d 1.2912 4 3 cbr 1000 ------- 3 6.0 2.0 96 280
+ 1.291467 4 3 cbr 1000 ------- 1 8.0 0.0 101 279
d 1.291467 4 3 cbr 1000 ------- 1 8.0 0.0 101 279
- 1.29184 4 3 cbr 1000 ------- 1 8.0 0.0 24 153
+ 1.2952 4 3 cbr 1000 ------- 1 8.0 0.0 102 281
r 1.295413 4 3 cbr 1000 ------- 3 6.0 2.0 70 150
+ 1.2968 4 3 cbr 1000 ------- 1 8.0 0.0 103 282
d 1.2968 4 3 cbr 1000 ------- 1 8.0 0.0 103 282
- 1.297173 4 3 cbr 1000 ------- 1 8.0 0.0 25 154
+ 1.2992 4 3 cbr 1000 ------- 3 6.0 2.0 97 283
+ 1.300533 4 3 cbr 1000 ------- 1 8.0 0.0 104 284
d 1.300533 4 3 cbr 1000 ------- 1 8.0 0.0 104 284
r 1.300747 4 3 cbr 1000 ------- 1 8.0 0.0 23 148
+ 1.302133 4 3 cbr 1000 ------- 1 8.0 0.0 105 285
d 1.302133 4 3 cbr 1000 ------- 1 8.0 0.0 105 285
- 1.302507 4 3 cbr 1000 ------- 3 6.0 2.0 71 155
+ 1.305867 4 3 cbr 1000 ------- 1 8.0 0.0 106 286
r 1.306293 4 3 tcp 1040 ------- 2 9.0 1.0 33 151
+ 1.3072 4 3 cbr 1000 ------- 3 6.0 2.0 98 288
d 1.3072 4 3 cbr 1000 ------- 3 6.0 2.0 98 288
+ 1.307467 4 3 cbr 1000 ------- 1 8.0 0.0 107 287
d 1.307467 4 3 cbr 1000 ------- 1 8.0 0.0 107 287
- 1.30784 4 3 cbr 1000 ------- 1 8.0 0.0 26 156
+ 1.3112 4 3 cbr 1000 ------- 1 8.0 0.0 108 289
r 1.31184 4 3 tcp 1040 ------- 2 9.0 1.0 34 152
+ 1.3128 4 3 cbr 1000 ------- 1 8.0 0.0 109 290
d 1.3128 4 3 cbr 1000 ------- 1 8.0 0.0 109 290
- 1.313173 4 3 cbr 1000 ------- 1 8.0 0.0 27 157
+ 1.3152 4 3 cbr 1000 ------- 3 6.0 2.0 99 292
+ 1.316533 4 3 cbr 1000 ------- 1 8.0 0.0 110 293
d 1.316533 4 3 cbr 1000 ------- 1 8.0 0.0 110 293
r 1.317173 4 3 cbr 1000 ------- 1 8.0 0.0 24 153
+ 1.318133 4 3 cbr 1000 ------- 1 8.0 0.0 111 294
d 1.318133 4 3 cbr 1000 ------- 1 8.0 0.0 111 294
- 1.318507 4 3 tcp 1040 ------- 2 9.0 1.0 35 159
+ 1.321867 4 3 cbr 1000 ------- 1 8.0 0.0 112 296
r 1.322507 4 3 cbr 1000 ------- 1 8.0 0.0 25 154
+ 1.3232 4 3 cbr 1000 ------- 3 6.0 2.0 100 298
d 1.3232 4 3 cbr 1000 ------- 3 6.0 2.0 100 298
+ 1.323467 4 3 cbr 1000 ------- 1 8.0 0.0 113 297
d 1.323467 4 3 cbr 1000 ------- 1 8.0 0.0 113 297
- 1.324053 4 3 tcp 1040 ------- 2 9.0 1.0 36 160
+ 1.3272 4 3 cbr 1000 ------- 1 8.0 0.0 114 299
r 1.32784 4 3 cbr 1000 ------- 3 6.0 2.0 71 155
+ 1.3288 4 3 cbr 1000 ------- 1 8.0 0.0 115 300
d 1.3288 4 3 cbr 1000 ------- 1 8.0 0.0 115 300
- 1.3296 4 3 cbr 1000 ------- 3 6.0 2.0 72 163
+ 1.3312 4 3 cbr 1000 ------- 3 6.0 2.0 101 301
+ 1.332533 4 3 cbr 1000 ------- 1 8.0 0.0 116 302
d 1.332533 4 3 cbr 1000 ------- 1 8.0 0.0 116 302
r 1.333173 4 3 cbr 1000 ------- 1 8.0 0.0 26 156
+ 1.334133 4 3 cbr 1000 ------- 1 8.0 0.0 117 303
d 1.334133 4 3 cbr 1000 ------- 1 8.0 0.0 117 303
- 1.334933 4 3 cbr 1000 ------- 1 8.0 0.0 28 161