V -t * -v 1.0a5 -a 0
A -t * -n 1 -p 0 -o 0x7fffffff -c 30 -a 1
A -t * -h 1 -m 1073741823 -s 0
c -t * -i 1 -n Blue
c -t * -i 2 -n Red
c -t * -i 3 -n Green
n -t * -a 8 -s 8 -S UP -v circle -c black -i black
n -t * -a 4 -s 4 -S UP -v circle -c black -i black
n -t * -a 0 -s 0 -S UP -v circle -c black -i black
n -t * -a 9 -s 9 -S UP -v circle -c black -i black
n -t * -a 5 -s 5 -S UP -v circle -c black -i black
n -t * -a 1 -s 1 -S UP -v circle -c black -i black
n -t * -a 6 -s 6 -S UP -v circle -c black -i black
n -t * -a 2 -s 2 -S UP -v circle -c black -i black
n -t * -a 7 -s 7 -S UP -v circle -c black -i black
n -t * -a 3 -s 3 -S UP -v circle -c black -i black
l -t * -s 3 -d 0 -S UP -r 5000000 -D 0.01 -c black -o left-up
l -t * -s 3 -d 2 -S UP -r 5000000 -D 0.01 -c black -o left-down
l -t * -s 3 -d 1 -S UP -r 5000000 -D 0.01 -c black -o left
l -t * -s 4 -d 3 -S UP -r 1500000 -D 0.02 -c black -o left
l -t * -s 4 -d 5 -S UP -r 5000000 -D 0.01 -c black -o right-up
l -t * -s 4 -d 7 -S UP -r 5000000 -D 0.01 -c black -o right-down
l -t * -s 5 -d 6 -S UP -r 5000000 -D 0.01 -c black -o right-up
l -t * -s 7 -d 8 -S UP -r 5000000 -D 0.01 -c black -o right-up
l -t * -s 7 -d 9 -S UP -r 5000000 -D 0.01 -c black -o right-down
q -t * -s 3 -d 4 -a 0.5
q -t * -s 4 -d 3 -a 0.5
+ -t 0.5 -s 6 -d 5 -p cbr -e 1000 -c 3 -i 0 -a 3 -x {6.0 2.0 0 ------- null}
- -t 0.5 -s 6 -d 5 -p cbr -e 1000 -c 3 -i 0 -a 3 -x {6.0 2.0 0 ------- null}
h -t 0.5 -s 6 -d 5 -p cbr -e 1000 -c 3 -i 0 -a 3 -x {6.0 2.0 -1 ------- null}
+ -t 0.5 -s 9 -d 7 -p tcp -e 40 -c 2 -i 1 -a 2 -x {9.0 1.0 0 ------- null}
- -t 0.5 -s 9 -d 7 -p tcp -e 40 -c 2 -i 1 -a 2 -x {9.0 1.0 0 ------- null}
h -t 0.5 -s 9 -d 7 -p tcp -e 40 -c 2 -i 1 -a 2 -x {9.0 1.0 -1 ------- null}
+ -t 0.508 -s 6 -d 5 -p cbr -e 1000 -c 3 -i 2 -a 3 -x {6.0 2.0 1 ------- null}
- -t 0.508 -s 6 -d 5 -p cbr -e 1000 -c 3 -i 2 -a 3 -x {6.0 2.0 1 ------- null}
h -t 0.508 -s 6 -d 5 -p cbr -e 1000 -c 3 -i 2 -a 3 -x {6.0 2.0 -1 ------- null}
r -t 0.510064 -s 9 -d 7 -p tcp -e 40 -c 2 -i 1 -a 2 -x {9.0 1.0 0 ------- null}
+ -t 0.510064 -s 7 -d 4 -p tcp -e 40 -c 2 -i 1 -a 2 -x {9.0 1.0 0 ------- null}
- -t 0.510064 -s 7 -d 4 -p tcp -e 40 -c 2 -i 1 -a 2 -x {9.0 1.0 0 ------- null}
h -t 0.510064 -s 7 -d 4 -p tcp -e 40 -c 2 -i 1 -a 2 -x {9.0 1.0 -1 ------- null}
r -t 0.5116 -s 6 -d 5 -p cbr -e 1000 -c 3 -i 0 -a 3 -x {6.0 2.0 0 ------- null}
+ -t 0.5116 -s 5 -d 4 -p cbr -e 1000 -c 3 -i 0 -a 3 -x {6.0 2.0 0 ------- null}
- -t 0.5116 -s 5 -d 4 -p cbr -e 1000 -c 3 -i 0 -a 3 -x {6.0 2.0 0 ------- null}
h -t 0.5116 -s 5 -d 4 -p cbr -e 1000 -c 3 -i 0 -a 3 -x {6.0 2.0 -1 ------- null}
+ -t 0.516 -s 6 -d 5 -p cbr -e 1000 -c 3 -i 3 -a 3 -x {6.0 2.0 2 ------- null}
- -t 0.516 -s 6 -d 5 -p cbr -e 1000 -c 3 -i 3 -a 3 -x {6.0 2.0 2 ------- null}
h -t 0.516 -s 6 -d 5 -p cbr -e 1000 -c 3 -i 3 -a 3 -x {6.0 2.0 -1 ------- null}
r -t 0.5196 -s 6 -d 5 -p cbr -e 1000 -c 3 -i 2 -a 3 -x {6.0 2.0 1 ------- null}
+ -t 0.5196 -s 5 -d 4 -p cbr -e 1000 -c 3 -i 2 -a 3 -x {6.0 2.0 1 ------- null}
- -t 0.5196 -s 5 -d 4 -p cbr -e 1000 -c 3 -i 2 -a 3 -x {6.0 2.0 1 ------- null}
h -t 0.5196 -s 5 -d 4 -p cbr -e 1000 -c 3 -i 2 -a 3 -x {6.0 2.0 -1 ------- null}
r -t 0.520128 -s 7 -d 4 -p tcp -e 40 -c 2 -i 1 -a 2 -x {9.0 1.0 0 ------- null}
+ -t 0.520128 -s 4 -d 3 -p tcp -e 40 -c 2 -i 1 -a 2 -x {9.0 1.0 0 ------- null}
- -t 0.520128 -s 4 -d 3 -p tcp -e 40 -c 2 -i 1 -a 2 -x {9.0 1.0 0 ------- null}
h -t 0.520128 -s 4 -d 3 -p tcp -e 40 -c 2 -i 1 -a 2 -x {9.0 1.0 -1 ------- null}
r -t 0.5232 -s 5 -d 4 -p cbr -e 1000 -c 3 -i 0 -a 3 -x {6.0 2.0 0 ------- null}
+ -t 0.5232 -s 4 -d 3 -p cbr -e 1000 -c 3 -i 0 -a 3 -x {6.0 2.0 0 ------- null}
- -t 0.5232 -s 4 -d 3 -p cbr -e 1000 -c 3 -i 0 -a 3 -x {6.0 2.0 0 ------- null}
h -t 0.5232 -s 4 -d 3 -p cbr -e 1000 -c 3 -i 0 -a 3 -x {6.0 2.0 -1 ------- null}
+ -t 0.524 -s 6 -d 5 -p cbr -e 1000 -c 3 -i 4 -a 3 -x {6.0 2.0 3 ------- null}
- -t 0.524 -s 6 -d 5 -p cbr -e 1000 -c 3 -i 4 -a 3 -x {6.0 2.0 3 ------- null}
h -t 0.524 -s 6 -d 5 -p cbr -e 1000 -c 3 -i 4 -a 3 -x {6.0 2.0 -1 ------- null}
r -t 0.5276 -s 6 -d 5 -p cbr -e 1000 -c 3 -i 3 -a 3 -x {6.0 2.0 2 ------- null}
+ -t 0.5276 -s 5 -d 4 -p cbr -e 1000 -c 3 -i 3 -a 3 -x {6.0 2.0 2 ------- null}
- -t 0.5276 -s 5 -d 4 -p cbr -e 1000 -c 3 -i 3 -a 3 -x {6.0 2.0 2 ------- null}
h -t 0.5276 -s 5 -d 4 -p cbr -e 1000 -c 3 -i 3 -a 3 -x {6.0 2.0 -1 ------- null}
r -t 0.5312 -s 5 -d 4 -p cbr -e 1000 -c 3 -i 2 -a 3 -x {6.0 2.0 1 ------- null}
+ -t 0.5312 -s 4 -d 3 -p cbr -e 1000 -c 3 -i 2 -a 3 -x {6.0 2.0 1 ------- null}
- -t 0.5312 -s 4 -d 3 -p cbr -e 1000 -c 3 -i 2 -a 3 -x {6.0 2.0 1 ------- null}
h -t 0.5312 -s 4 -d 3 -p cbr -e 1000 -c 3 -i 2 -a 3 -x {6.0 2.0 -1 ------- null}
+ -t 0.532 -s 6 -d 5 -p cbr -e 1000 -c 3 -i 5 -a 3 -x {6.0 2.0 4 ------- null}
- -t 0.532 -s 6 -d 5 -p cbr -e 1000 -c 3 -i 5 -a 3 -x {6.0 2.0 4 ------- null}
h -t 0.532 -s 6 -d 5 -p cbr -e 1000 -c 3 -i 5 -a 3 -x {6.0 2.0 -1 ------- null}
r -t 0.5356 -s 6 -d 5 -p cbr -e 1000 -c 3 -i 4 -a 3 -x {6.0 2.0 3 ------- null}
+ -t 0.5356 -s 5 -d 4 -p cbr -e 1000 -c 3 -i 4 -a 3 -x {6.0 2.0 3 ------- null}
- -t 0.5356 -s 5 -d 4 -p cbr -e 1000 -c 3 -i 4 -a 3 -x {6.0 2.0 3 ------- null}
h -t 0.5356 -s 5 -d 4 -p cbr -e 1000 -c 3 -i 4 -a 3 -x {6.0 2.0 -1 ------- null}
r -t 0.5392 -s 5 -d 4 -p cbr -e 1000 -c 3 -i 3 -a 3 -x {6.0 2.0 2 ------- null}
+ -t 0.5392 -s 4 -d 3 -p cbr -e 1000 -c 3 -i 3 -a 3 -x {6.0 2.0 2 ------- null}
- -t 0.5392 -s 4 -d 3 -p cbr -e 1000 -c 3 -i 3 -a 3 -x {6.0 2.0 2 ------- null}
h -t 0.5392 -s 4 -d 3 -p cbr -e 1000 -c 3 -i 3 -a 3 -x {6.0 2.0 -1 ------- null}
+ -t 0.54 -s 6 -d 5 -p cbr -e 1000 -c 3 -i 6 -a 3 -x {6.0 2.0 5 ------- null}
- -t 0.54 -s 6 -d 5 -p cbr -e 1000 -c 3 -i 6 -a 3 -x {6.0 2.0 5 ------- null}
h -t 0.54 -s 6 -d 5 -p cbr -e 1000 -c 3 -i 6 -a 3 -x {6.0 2.0 -1 ------- null}
r -t 0.540341333333333 -s 4 -d 3 -p tcp -e 40 -c 2 -i 1 -a 2 -x {9.0 1.0 0 ------- null}
+ -t 0.540341333333333 -s 3 -d 1 -p tcp -e 40 -c 2 -i 1 -a 2 -x {9.0 1.0 0 ------- null}
- -t 0.540341333333333 -s 3 -d 1 -p tcp -e 40 -c 2 -i 1 -a 2 -x {9.0 1.0 0 ------- null}
h -t 0.540341333333333 -s 3 -d 1 -p tcp -e 40 -c 2 -i 1 -a 2 -x {9.0 1.0 -1 ------- null}
r -t 0.5436 -s 6 -d 5 -p cbr -e 1000 -c 3 -i 5 -a 3 -x {6.0 2.0 4 ------- null}
+ -t 0.5436 -s 5 -d 4 -p cbr -e 1000 -c 3 -i 5 -a 3 -x {6.0 2.0 4 ------- null}
- -t 0.5436 -s 5 -d 4 -p cbr -e 1000 -c 3 -i 5 -a 3 -x {6.0 2.0 4 ------- null}
h -t 0.5436 -s 5 -d 4 -p cbr -e 1000 -c 3 -i 5 -a 3 -x {6.0 2.0 -1 ------- null}
r -t 0.5472 -s 5 -d 4 -p cbr -e 1000 -c 3 -i 4 -a 3 -x {6.0 2.0 3 ------- null}
+ -t 0.5472 -s 4 -d 3 -p cbr -e 1000 -c 3 -i 4 -a 3 -x {6.0 2.0 3 ------- null}
- -t 0.5472 -s 4 -d 3 -p cbr -e 1000 -c 3 -i 4 -a 3 -x {6.0 2.0 3 ------- null}
h -t 0.5472 -s 4 -d 3 -p cbr -e 1000 -c 3 -i 4 -a 3 -x {6.0 2.0 -1 ------- null}
+ -t 0.548 -s 6 -d 5 -p cbr -e 1000 -c 3 -i 7 -a 3 -x {6.0 2.0 6 ------- null}
- -t 0.548 -s 6 -d 5 -p cbr -e 1000 -c 3 -i 7 -a 3 -x {6.0 2.0 6 ------- null}
h -t 0.548 -s 6 -d 5 -p cbr -e 1000 -c 3 -i 7 -a 3 -x {6.0 2.0 -1 ------- null}
r -t 0.548533333333333 -s 4 -d 3 -p cbr -e 1000 -c 3 -i 0 -a 3 -x {6.0 2.0 0 ------- null}
+ -t 0.548533333333333 -s 3 -d 2 -p cbr -e 1000 -c 3 -i 0 -a 3 -x {6.0 2.0 0 ------- null}
- -t 0.548533333333333 -s 3 -d 2 -p cbr -e 1000 -c 3 -i 0 -a 3 -x {6.0 2.0 0 ------- null}
h -t 0.548533333333333 -s 3 -d 2 -p cbr -e 1000 -c 3 -i 0 -a 3 -x {6.0 2.0 -1 ------- null}
r -t 0.550405333333333 -s 3 -d 1 -p tcp -e 40 -c 2 -i 1 -a 2 -x {9.0 1.0 0 ------- null}
+ -t 0.550405333333333 -s 1 -d 3 -p ack -e 40 -c 2 -i 8 -a 2 -x {1.0 9.0 0 ------- null}
- -t 0.550405333333333 -s 1 -d 3 -p ack -e 40 -c 2 -i 8 -a 2 -x {1.0 9.0 0 ------- null}
h -t 0.550405333333333 -s 1 -d 3 -p ack -e 40 -c 2 -i 8 -a 2 -x {1.0 9.0 -1 ------- null}
r -t 0.5516 -s 6 -d 5 -p cbr -e 1000 -c 3 -i 6 -a 3 -x {6.0 2.0 5 ------- null}
+ -t 0.5516 -s 5 -d 4 -p cbr -e 1000 -c 3 -i 6 -a 3 -x {6.0 2.0 5 ------- null}
- -t 0.5516 -s 5 -d 4 -p cbr -e 1000 -c 3 -i 6 -a 3 -x {6.0 2.0 5 ------- null}
h -t 0.5516 -s 5 -d 4 -p cbr -e 1000 -c 3 -i 6 -a 3 -x {6.0 2.0 -1 ------- null}
r -t 0.5552 -s 5 -d 4 -p cbr -e 1000 -c 3 -i 5 -a 3 -x {6.0 2.0 4 ------- null}
+ -t 0.5552 -s 4 -d 3 -p cbr -e 1000 -c 3 -i 5 -a 3 -x {6.0 2.0 4 ------- null}
- -t 0.5552 -s 4 -d 3 -p cbr -e 1000 -c 3 -i 5 -a 3 -x {6.0 2.0 4 ------- null}
h -t 0.5552 -s 4 -d 3 -p cbr -e 1000 -c 3 -i 5 -a 3 -x {6.0 2.0 -1 ------- null}
+ -t 0.556 -s 6 -d 5 -p cbr -e 1000 -c 3 -i 9 -a 3 -x {6.0 2.0 7 ------- null}
- -t 0.556 -s 6 -d 5 -p cbr -e 1000 -c 3 -i 9 -a 3 -x {6.0 2.0 7 ------- null}
h -t 0.556 -s 6 -d 5 -p cbr -e 1000 -c 3 -i 9 -a 3 -x {6.0 2.0 -1 ------- null}
r -t 0.556533333333333 -s 4 -d 3 -p cbr -e 1000 -c 3 -i 2 -a 3 -x {6.0 2.0 1 ------- null}
+ -t 0.556533333333333 -s 3 -d 2 -p cbr -e 1000 -c 3 -i 2 -a 3 -x {6.0 2.0 1 ------- null}
- -t 0.556533333333333 -s 3 -d 2 -p cbr -e 1000 -c 3 -i 2 -a 3 -x {6.0 2.0 1 ------- null}
h -t 0.556533333333333 -s 3 -d 2 -p cbr -e 1000 -c 3 -i 2 -a 3 -x {6.0 2.0 -1 ------- null}
r -t 0.5596 -s 6 -d 5 -p cbr -e 1000 -c 3 -i 7 -a 3 -x {6.0 2.0 6 ------- null}
+ -t 0.5596 -s 5 -d 4 -p cbr -e 1000 -c 3 -i 7 -a 3 -x {6.0 2.0 6 ------- null}
- -t 0.5596 -s 5 -d 4 -p cbr -e 1000 -c 3 -i 7 -a 3 -x {6.0 2.0 6 ------- null}
h -t 0.5596 -s 5 -d 4 -p cbr -e 1000 -c 3 -i 7 -a 3 -x {6.0 2.0 -1 ------- null}
r -t 0.560133333333333 -s 3 -d 2 -p cbr -e 1000 -c 3 -i 0 -a 3 -x {6.0 2.0 0 ------- null}
r -t 0.560469333333333 -s 1 -d 3 -p ack -e 40 -c 2 -i 8 -a 2 -x {1.0 9.0 0 ------- null}
+ -t 0.560469333333333 -s 3 -d 4 -p ack -e 40 -c 2 -i 8 -a 2 -x {1.0 9.0 0 ------- null}
- -t 0.560469333333333 -s 3 -d 4 -p ack -e 40 -c 2 -i 8 -a 2 -x {1.0 9.0 0 ------- null}
h -t 0.560469333333333 -s 3 -d 4 -p ack -e 40 -c 2 -i 8 -a 2 -x {1.0 9.0 -1 ------- null}
r -t 0.5632 -s 5 -d 4 -p cbr -e 1000 -c 3 -i 6 -a 3 -x {6.0 2.0 5 ------- null}
+ -t 0.5632 -s 4 -d 3 -p cbr -e 1000 -c 3 -i 6 -a 3 -x {6.0 2.0 5 ------- null}
- -t 0.5632 -s 4 -d 3 -p cbr -e 1000 -c 3 -i 6 -a 3 -x {6.0 2.0 5 ------- null}
h -t 0.5632 -s 4 -d 3 -p cbr -e 1000 -c 3 -i 6 -a 3 -x {6.0 2.0 -1 ------- null}
+ -t 0.564 -s 6 -d 5 -p cbr -e 1000 -c 3 -i 10 -a 3 -x {6.0 2.0 8 ------- null}
- -t 0.564 -s 6 -d 5 -p cbr -e 1000 -c 3 -i 10 -a 3 -x {6.0 2.0 8 ------- null}
h -t 0.564 -s 6 -d 5 -p cbr -e 1000 -c 3 -i 10 -a 3 -x {6.0 2.0 -1 ------- null}
r -t 0.564533333333333 -s 4 -d 3 -p cbr -e 1000 -c 3 -i 3 -a 3 -x {6.0 2.0 2 ------- null}
+ -t 0.564533333333333 -s 3 -d 2 -p cbr -e 1000 -c 3 -i 3 -a 3 -x {6.0 2.0 2 ------- null}
- -t 0.564533333333333 -s 3 -d 2 -p cbr -e 1000 -c 3 -i 3 -a 3 -x {6.0 2.0 2 ------- null}
h -t 0.564533333333333 -s 3 -d 2 -p cbr -e 1000 -c 3 -i 3 -a 3 -x {6.0 2.0 -1 ------- null}
r -t 0.5676 -s 6 -d 5 -p cbr -e 1000 -c 3 -i 9 -a 3 -x {6.0 2.0 7 ------- null}
+ -t 0.5676 -s 5 -d 4 -p cbr -e 1000 -c 3 -i 9 -a 3 -x {6.0 2.0 7 ------- null}
- -t 0.5676 -s 5 -d 4 -p cbr -e 1000 -c 3 -i 9 -a 3 -x {6.0 2.0 7 ------- null}
h -t 0.5676 -s 5 -d 4 -p cbr -e 1000 -c 3 -i 9 -a 3 -x {6.0 2.0 -1 ------- null}
r -t 0.568133333333333 -s 3 -d 2 -p cbr -e 1000 -c 3 -i 2 -a 3 -x {6.0 2.0 1 ------- null}
r -t 0.5712 -s 5 -d 4 -p cbr -e 1000 -c 3 -i 7 -a 3 -x {6.0 2.0 6 ------- null}
+ -t 0.5712 -s 4 -d 3 -p cbr -e 1000 -c 3 -i 7 -a 3 -x {6.0 2.0 6 ------- null}
- -t 0.5712 -s 4 -d 3 -p cbr -e 1000 -c 3 -i 7 -a 3 -x {6.0 2.0 6 ------- null}
h -t 0.5712 -s 4 -d 3 -p cbr -e 1000 -c 3 -i 7 -a 3 -x {6.0 2.0 -1 ------- null}
+ -t 0.572 -s 6 -d 5 -p cbr -e 1000 -c 3 -i 11 -a 3 -x {6.0 2.0 9 ------- null}
- -t 0.572 -s 6 -d 5 -p cbr -e 1000 -c 3 -i 11 -a 3 -x {6.0 2.0 9 ------- null}
h -t 0.572 -s 6 -d 5 -p cbr -e 1000 -c 3 -i 11 -a 3 -x {6.0 2.0 -1 ------- null}
r -t 0.572533333333333 -s 4 -d 3 -p cbr -e 1000 -c 3 -i 4 -a 3 -x {6.0 2.0 3 ------- null}
+ -t 0.572533333333333 -s 3 -d 2 -p cbr -e 1000 -c 3 -i 4 -a 3 -x {6.0 2.0 3 ------- null}
- -t 0.572533333333333 -s 3 -d 2 -p cbr -e 1000 -c 3 -i 4 -a 3 -x {6.0 2.0 3 ------- null}
h -t 0.572533333333333 -s 3 -d 2 -p cbr -e 1000 -c 3 -i 4 -a 3 -x {6.0 2.0 -1 ------- null}
r -t 0.5756 -s 6 -d 5 -p cbr -e 1000 -c 3 -i 10 -a 3 -x {6.0 2.0 8 ------- null}
+ -t 0.5756 -s 5 -d 4 -p cbr -e 1000 -c 3 -i 10 -a 3 -x {6.0 2.0 8 ------- null}
- -t 0.5756 -s 5 -d 4 -p cbr -e 1000 -c 3 -i 10 -a 3 -x {6.0 2.0 8 ------- null}
h -t 0.5756 -s 5 -d 4 -p cbr -e 1000 -c 3 -i 10 -a 3 -x {6.0 2.0 -1 ------- null}
r -t 0.576133333333333 -s 3 -d 2 -p cbr -e 1000 -c 3 -i 3 -a 3 -x {6.0 2.0 2 ------- null}
r -t 0.5792 -s 5 -d 4 -p cbr -e 1000 -c 3 -i 9 -a 3 -x {6.0 2.0 7 ------- null}
+ -t 0.5792 -s 4 -d 3 -p cbr -e 1000 -c 3 -i 9 -a 3 -x {6.0 2.0 7 ------- null}
- -t 0.5792 -s 4 -d 3 -p cbr -e 1000 -c 3 -i 9 -a 3 -x {6.0 2.0 7 ------- null}
h -t 0.5792 -s 4 -d 3 -p cbr -e 1000 -c 3 -i 9 -a 3 -x {6.0 2.0 -1 ------- null}
+ -t 0.58 -s 6 -d 5 -p cbr -e 1000 -c 3 -i 12 -a 3 -x {6.0 2.0 10 ------- null}
- -t 0.58 -s 6 -d 5 -p cbr -e 1000 -c 3 -i 12 -a 3 -x {6.0 2.0 10 ------- null}
h -t 0.58 -s 6 -d 5 -p cbr -e 1000 -c 3 -i 12 -a 3 -x {6.0 2.0 -1 ------- null}
r -t 0.580533333333333 -s 4 -d 3 -p cbr -e 1000 -c 3 -i 5 -a 3 -x {6.0 2.0 4 ------- null}
+ -t 0.580533333333333 -s 3 -d 2 -p cbr -e 1000 -c 3 -i 5 -a 3 -x {6.0 2.0 4 ------- null}
- -t 0.580533333333333 -s 3 -d 2 -p cbr -e 1000 -c 3 -i 5 -a 3 -x {6.0 2.0 4 ------- null}
h -t 0.580533333333333 -s 3 -d 2 -p cbr -e 1000 -c 3 -i 5 -a 3 -x {6.0 2.0 -1 ------- null}
r -t 0.580682666666666 -s 3 -d 4 -p ack -e 40 -c 2 -i 8 -a 2 -x {1.0 9.0 0 ------- null}
+ -t 0.580682666666666 -s 4 -d 7 -p ack -e 40 -c 2 -i 8 -a 2 -x {1.0 9.0 0 ------- null}
- -t 0.580682666666666 -s 4 -d 7 -p ack -e 40 -c 2 -i 8 -a 2 -x {1.0 9.0 0 ------- null}
h -t 0.580682666666666 -s 4 -d 7 -p ack -e 40 -c 2 -i 8 -a 2 -x {1.0 9.0 -1 ------- null}
r -t 0.5836 -s 6 -d 5 -p cbr -e 1000 -c 3 -i 11 -a 3 -x {6.0 2.0 9 ------- null}
+ -t 0.5836 -s 5 -d 4 -p cbr -e 1000 -c 3 -i 11 -a 3 -x {6.0 2.0 9 ------- null}
- -t 0.5836 -s 5 -d 4 -p cbr -e 1000 -c 3 -i 11 -a 3 -x {6.0 2.0 9 ------- null}
h -t 0.5836 -s 5 -d 4 -p cbr -e 1000 -c 3 -i 11 -a 3 -x {6.0 2.0 -1 ------- null}
r -t 0.584133333333334 -s 3 -d 2 -p cbr -e 1000 -c 3 -i 4 -a 3 -x {6.0 2.0 3 ------- null}
r -t 0.5872 -s 5 -d 4 -p cbr -e 1000 -c 3 -i 10 -a 3 -x {6.0 2.0 8 ------- null}
+ -t 0.5872 -s 4 -d 3 -p cbr -e 1000 -c 3 -i 10 -a 3 -x {6.0 2.0 8 ------- null}
- -t 0.5872 -s 4 -d 3 -p cbr -e 1000 -c 3 -i 10 -a 3 -x {6.0 2.0 8 ------- null}
h -t 0.5872 -s 4 -d 3 -p cbr -e 1000 -c 3 -i 10 -a 3 -x {6.0 2.0 -1 ------- null}
+ -t 0.588 -s 6 -d 5 -p cbr -e 1000 -c 3 -i 13 -a 3 -x {6.0 2.0 11 ------- null}
- -t 0.588 -s 6 -d 5 -p cbr -e 1000 -c 3 -i 13 -a 3 -x {6.0 2.0 11 ------- null}
h -t 0.588 -s 6 -d 5 -p cbr -e 1000 -c 3 -i 13 -a 3 -x {6.0 2.0 -1 ------- null}
r -t 0.588533333333333 -s 4 -d 3 -p cbr -e 1000 -c 3 -i 6 -a 3 -x {6.0 2.0 5 ------- null}
+ -t 0.588533333333333 -s 3 -d 2 -p cbr -e 1000 -c 3 -i 6 -a 3 -x {6.0 2.0 5 ------- null}
- -t 0.588533333333333 -s 3 -d 2 -p cbr -e 1000 -c 3 -i 6 -a 3 -x {6.0 2.0 5 ------- null}
h -t 0.588533333333333 -s 3 -d 2 -p cbr -e 1000 -c 3 -i 6 -a 3 -x {6.0 2.0 -1 ------- null}
r -t 0.590746666666666 -s 4 -d 7 -p ack -e 40 -c 2 -i 8 -a 2 -x {1.0 9.0 0 ------- null}
+ -t 0.590746666666666 -s 7 -d 9 -p ack -e 40 -c 2 -i 8 -a 2 -x {1.0 9.0 0 ------- null}
- -t 0.590746666666666 -s 7 -d 9 -p ack -e 40 -c 2 -i 8 -a 2 -x {1.0 9.0 0 ------- null}
h -t 0.590746666666666 -s 7 -d 9 -p ack -e 40 -c 2 -i 8 -a 2 -x {1.0 9.0 -1 ------- null}
r -t 0.5916 -s 6 -d 5 -p cbr -e 1000 -c 3 -i 12 -a 3 -x {6.0 2.0 10 ------- null}
+ -t 0.5916 -s 5 -d 4 -p cbr -e 1000 -c 3 -i 12 -a 3 -x {6.0 2.0 10 ------- null}
- -t 0.5916 -s 5 -d 4 -p cbr -e 1000 -c 3 -i 12 -a 3 -x {6.0 2.0 10 ------- null}
h -t 0.5916 -s 5 -d 4 -p cbr -e 1000 -c 3 -i 12 -a 3 -x {6.0 2.0 -1 ------- null}
r -t 0.592133333333334 -s 3 -d 2 -p cbr -e 1000 -c 3 -i 5 -a 3 -x {6.0 2.0 4 ------- null}
r -t 0.5952 -s 5 -d 4 -p cbr -e 1000 -c 3 -i 11 -a 3 -x {6.0 2.0 9 ------- null}
+ -t 0.5952 -s 4 -d 3 -p cbr -e 1000 -c 3 -i 11 -a 3 -x {6.0 2.0 9 ------- null}
- -t 0.5952 -s 4 -d 3 -p cbr -e 1000 -c 3 -i 11 -a 3 -x {6.0 2.0 9 ------- null}
h -t 0.5952 -s 4 -d 3 -p cbr -e 1000 -c 3 -i 11 -a 3 -x {6.0 2.0 -1 ------- null}
+ -t 0.596 -s 6 -d 5 -p cbr -e 1000 -c 3 -i 14 -a 3 -x {6.0 2.0 12 ------- null}
- -t 0.596 -s 6 -d 5 -p cbr -e 1000 -c 3 -i 14 -a 3 -x {6.0 2.0 12 ------- null}
h -t 0.596 -s 6 -d 5 -p cbr -e 1000 -c 3 -i 14 -a 3 -x {6.0 2.0 -1 ------- null}
r -t 0.596533333333333 -s 4 -d 3 -p cbr -e 1000 -c 3 -i 7 -a 3 -x {6.0 2.0 6 ------- null}
+ -t 0.596533333333333 -s 3 -d 2 -p cbr -e 1000 -c 3 -i 7 -a 3 -x {6.0 2.0 6 ------- null}
- -t 0.596533333333333 -s 3 -d 2 -p cbr -e 1000 -c 3 -i 7 -a 3 -x {6.0 2.0 6 ------- null}
h -t 0.596533333333333 -s 3 -d 2 -p cbr -e 1000 -c 3 -i 7 -a 3 -x {6.0 2.0 -1 ------- null}
r -t 0.5996 -s 6 -d 5 -p cbr -e 1000 -c 3 -i 13 -a 3 -x {6.0 2.0 11 ------- null}
+ -t 0.5996 -s 5 -d 4 -p cbr -e 1000 -c 3 -i 13 -a 3 -x {6.0 2.0 11 ------- null}
- -t 0.5996 -s 5 -d 4 -p cbr -e 1000 -c 3 -i 13 -a 3 -x {6.0 2.0 11 ------- null}
h -t 0.5996 -s 5 -d 4 -p cbr -e 1000 -c 3 -i 13 -a 3 -x {6.0 2.0 -1 ------- null}
r -t 0.600133333333334 -s 3 -d 2 -p cbr -e 1000 -c 3 -i 6 -a 3 -x {6.0 2.0 5 ------- null}
r -t 0.600810666666666 -s 7 -d 9 -p ack -e 40 -c 2 -i 8 -a 2 -x {1.0 9.0 0 ------- null}
+ -t 0.600810666666666 -s 9 -d 7 -p tcp -e 1040 -c 2 -i 15 -a 2 -x {9.0 1.0 1 ------- null}
- -t 0.600810666666666 -s 9 -d 7 -p tcp -e 1040 -c 2 -i 15 -a 2 -x {9.0 1.0 1 ------- null}
h -t 0.600810666666666 -s 9 -d 7 -p tcp -e 1040 -c 2 -i 15 -a 2 -x {9.0 1.0 -1 ------- null}
+ -t 0.600810666666666 -s 9 -d 7 -p tcp -e 1040 -c 2 -i 16 -a 2 -x {9.0 1.0 2 ------- null}
- -t 0.602474666666666 -s 9 -d 7 -p tcp -e 1040 -c 2 -i 16 -a 2 -x {9.0 1.0 2 ------- null}
h -t 0.602474666666666 -s 9 -d 7 -p tcp -e 1040 -c 2 -i 16 -a 2 -x {9.0 1.0 -1 ------- null}
r -t 0.6032 -s 5 -d 4 -p cbr -e 1000 -c 3 -i 12 -a 3 -x {6.0 2.0 10 ------- null}
+ -t 0.6032 -s 4 -d 3 -p cbr -e 1000 -c 3 -i 12 -a 3 -x {6.0 2.0 10 ------- null}
- -t 0.6032 -s 4 -d 3 -p cbr -e 1000 -c 3 -i 12 -a 3 -x {6.0 2.0 10 ------- null}
h -t 0.6032 -s 4 -d 3 -p cbr -e 1000 -c 3 -i 12 -a 3 -x {6.0 2.0 -1 ------- null}
+ -t 0.604 -s 6 -d 5 -p cbr -e 1000 -c 3 -i 17 -a 3 -x {6.0 2.0 13 ------- null}
- -t 0.604 -s 6 -d 5 -p cbr -e 1000 -c 3 -i 17 -a 3 -x {6.0 2.0 13 ------- null}
h -t 0.604 -s 6 -d 5 -p cbr -e 1000 -c 3 -i 17 -a 3 -x {6.0 2.0 -1 ------- null}
r -t 0.604533333333333 -s 4 -d 3 -p cbr -e 1000 -c 3 -i 9 -a 3 -x {6.0 2.0 7 ------- null}
+ -t 0.604533333333333 -s 3 -d 2 -p cbr -e 1000 -c 3 -i 9 -a 3 -x {6.0 2.0 7 ------- null}
- -t 0.604533333333333 -s 3 -d 2 -p cbr -e 1000 -c 3 -i 9 -a 3 -x {6.0 2.0 7 ------- null}
h -t 0.604533333333333 -s 3 -d 2 -p cbr -e 1000 -c 3 -i 9 -a 3 -x {6.0 2.0 -1 ------- null}
r -t 0.6076 -s 6 -d 5 -p cbr -e 1000 -c 3 -i 14 -a 3 -x {6.0 2.0 12 ------- null}
+ -t 0.6076 -s 5 -d 4 -p cbr -e 1000 -c 3 -i 14 -a 3 -x {6.0 2.0 12 ------- null}
- -t 0.6076 -s 5 -d 4 -p cbr -e 1000 -c 3 -i 14 -a 3 -x {6.0 2.0 12 ------- null}
h -t 0.6076 -s 5 -d 4 -p cbr -e 1000 -c 3 -i 14 -a 3 -x {6.0 2.0 -1 ------- null}
r -t 0.608133333333334 -s 3 -d 2 -p cbr -e 1000 -c 3 -i 7 -a 3 -x {6.0 2.0 6 ------- null}
r -t 0.6112 -s 5 -d 4 -p cbr -e 1000 -c 3 -i 13 -a 3 -x {6.0 2.0 11 ------- null}
+ -t 0.6112 -s 4 -d 3 -p cbr -e 1000 -c 3 -i 13 -a 3 -x {6.0 2.0 11 ------- null}
- -t 0.6112 -s 4 -d 3 -p cbr -e 1000 -c 3 -i 13 -a 3 -x {6.0 2.0 11 ------- null}
h -t 0.6112 -s 4 -d 3 -p cbr -e 1000 -c 3 -i 13 -a 3 -x {6.0 2.0 -1 ------- null}
+ -t 0.612 -s 6 -d 5 -p cbr -e 1000 -c 3 -i 18 -a 3 -x {6.0 2.0 14 ------- null}
- -t 0.612 -s 6 -d 5 -p cbr -e 1000 -c 3 -i 18 -a 3 -x {6.0 2.0 14 ------- null}
h -t 0.612 -s 6 -d 5 -p cbr -e 1000 -c 3 -i 18 -a 3 -x {6.0 2.0 -1 ------- null}
r -t 0.612474666666666 -s 9 -d 7 -p tcp -e 1040 -c 2 -i 15 -a 2 -x {9.0 1.0 1 ------- null}
+ -t 0.612474666666666 -s 7 -d 4 -p tcp -e 1040 -c 2 -i 15 -a 2 -x {9.0 1.0 1 ------- null}
- -t 0.612474666666666 -s 7 -d 4 -p tcp -e 1040 -c 2 -i 15 -a 2 -x {9.0 1.0 1 ------- null}
h -t 0.612474666666666 -s 7 -d 4 -p tcp -e 1040 -c 2 -i 15 -a 2 -x {9.0 1.0 -1 ------- null}
r -t 0.612533333333333 -s 4 -d 3 -p cbr -e 1000 -c 3 -i 10 -a 3 -x {6.0 2.0 8 ------- null}
+ -t 0.612533333333333 -s 3 -d 2 -p cbr -e 1000 -c 3 -i 10 -a 3 -x {6.0 2.0 8 ------- null}
- -t 0.612533333333333 -s 3 -d 2 -p cbr -e 1000 -c 3 -i 10 -a 3 -x {6.0 2.0 8 ------- null}
h -t 0.612533333333333 -s 3 -d 2 -p cbr -e 1000 -c 3 -i 10 -a 3 -x {6.0 2.0 -1 ------- null}
r -t 0.614138666666666 -s 9 -d 7 -p tcp -e 1040 -c 2 -i 16 -a 2 -x {9.0 1.0 2 ------- null}
+ -t 0.614138666666666 -s 7 -d 4 -p tcp -e 1040 -c 2 -i 16 -a 2 -x {9.0 1.0 2 ------- null}
- -t 0.614138666666666 -s 7 -d 4 -p tcp -e 1040 -c 2 -i 16 -a 2 -x {9.0 1.0 2 ------- null}
h -t 0.614138666666666 -s 7 -d 4 -p tcp -e 1040 -c 2 -i 16 -a 2 -x {9.0 1.0 -1 ------- null}
r -t 0.6156 -s 6 -d 5 -p cbr -e 1000 -c 3 -i 17 -a 3 -x {6.0 2.0 13 ------- null}
+ -t 0.6156 -s 5 -d 4 -p cbr -e 1000 -c 3 -i 17 -a 3 -x {6.0 2.0 13 ------- null}
- -t 0.6156 -s 5 -d 4 -p cbr -e 1000 -c 3 -i 17 -a 3 -x {6.0 2.0 13 ------- null}
h -t 0.6156 -s 5 -d 4 -p cbr -e 1000 -c 3 -i 17 -a 3 -x {6.0 2.0 -1 ------- null}
r -t 0.616133333333334 -s 3 -d 2 -p cbr -e 1000 -c 3 -i 9 -a 3 -x {6.0 2.0 7 ------- null}
r -t 0.6192 -s 5 -d 4 -p cbr -e 1000 -c 3 -i 14 -a 3 -x {6.0 2.0 12 ------- null}
+ -t 0.6192 -s 4 -d 3 -p cbr -e 1000 -c 3 -i 14 -a 3 -x {6.0 2.0 12 ------- null}
- -t 0.6192 -s 4 -d 3 -p cbr -e 1000 -c 3 -i 14 -a 3 -x {6.0 2.0 12 ------- null}
h -t 0.6192 -s 4 -d 3 -p cbr -e 1000 -c 3 -i 14 -a 3 -x {6.0 2.0 -1 ------- null}
+ -t 0.62 -s 6 -d 5 -p cbr -e 1000 -c 3 -i 19 -a 3 -x {6.0 2.0 15 ------- null}
- -t 0.62 -s 6 -d 5 -p cbr -e 1000 -c 3 -i 19 -a 3 -x {6.0 2.0 15 ------- null}
h -t 0.62 -s 6 -d 5 -p cbr -e 1000 -c 3 -i 19 -a 3 -x {6.0 2.0 -1 ------- null}
r -t 0.620533333333333 -s 4 -d 3 -p cbr -e 1000 -c 3 -i 11 -a 3 -x {6.0 2.0 9 ------- null}
+ -t 0.620533333333333 -s 3 -d 2 -p cbr -e 1000 -c 3 -i 11 -a 3 -x {6.0 2.0 9 ------- null}
- -t 0.620533333333333 -s 3 -d 2 -p cbr -e 1000 -c 3 -i 11 -a 3 -x {6.0 2.0 9 ------- null}
h -t 0.620533333333333 -s 3 -d 2 -p cbr -e 1000 -c 3 -i 11 -a 3 -x {6.0 2.0 -1 ------- null}
r -t 0.6236 -s 6 -d 5 -p cbr -e 1000 -c 3 -i 18 -a 3 -x {6.0 2.0 14 ------- null}
+ -t 0.6236 -s 5 -d 4 -p cbr -e 1000 -c 3 -i 18 -a 3 -x {6.0 2.0 14 ------- null}
- -t 0.6236 -s 5 -d 4 -p cbr -e 1000 -c 3 -i 18 -a 3 -x {6.0 2.0 14 ------- null}
h -t 0.6236 -s 5 -d 4 -p cbr -e 1000 -c 3 -i 18 -a 3 -x {6.0 2.0 -1 ------- null}
r -t 0.624133333333334 -s 3 -d 2 -p cbr -e 1000 -c 3 -i 10 -a 3 -x {6.0 2.0 8 ------- null}
r -t 0.624138666666666 -s 7 -d 4 -p tcp -e 1040 -c 2 -i 15 -a 2 -x {9.0 1.0 1 ------- null}
+ -t 0.624138666666666 -s 4 -d 3 -p tcp -e 1040 -c 2 -i 15 -a 2 -x {9.0 1.0 1 ------- null}
- -t 0.624533333333333 -s 4 -d 3 -p tcp -e 1040 -c 2 -i 15 -a 2 -x {9.0 1.0 1 ------- null}
h -t 0.624533333333333 -s 4 -d 3 -p tcp -e 1040 -c 2 -i 15 -a 2 -x {9.0 1.0 -1 ------- null}
r -t 0.625802666666666 -s 7 -d 4 -p tcp -e 1040 -c 2 -i 16 -a 2 -x {9.0 1.0 2 ------- null}
+ -t 0.625802666666666 -s 4 -d 3 -p tcp -e 1040 -c 2 -i 16 -a 2 -x {9.0 1.0 2 ------- null}
r -t 0.6272 -s 5 -d 4 -p cbr -e 1000 -c 3 -i 17 -a 3 -x {6.0 2.0 13 ------- null}
+ -t 0.6272 -s 4 -d 3 -p cbr -e 1000 -c 3 -i 17 -a 3 -x {6.0 2.0 13 ------- null}
+ -t 0.628 -s 6 -d 5 -p cbr -e 1000 -c 3 -i 20 -a 3 -x {6.0 2.0 16 ------- null}
- -t 0.628 -s 6 -d 5 -p cbr -e 1000 -c 3 -i 20 -a 3 -x {6.0 2.0 16 ------- null}
h -t 0.628 -s 6 -d 5 -p cbr -e 1000 -c 3 -i 20 -a 3 -x {6.0 2.0 -1 ------- null}
r -t 0.628533333333333 -s 4 -d 3 -p cbr -e 1000 -c 3 -i 12 -a 3 -x {6.0 2.0 10 ------- null}
+ -t 0.628533333333333 -s 3 -d 2 -p cbr -e 1000 -c 3 -i 12 -a 3 -x {6.0 2.0 10 ------- null}
- -t 0.628533333333333 -s 3 -d 2 -p cbr -e 1000 -c 3 -i 12 -a 3 -x {6.0 2.0 10 ------- null}
h -t 0.628533333333333 -s 3 -d 2 -p cbr -e 1000 -c 3 -i 12 -a 3 -x {6.0 2.0 -1 ------- null}
- -t 0.63008 -s 4 -d 3 -p tcp -e 1040 -c 2 -i 16 -a 2 -x {9.0 1.0 2 ------- null}
h -t 0.63008 -s 4 -d 3 -p tcp -e 1040 -c 2 -i 16 -a 2 -x {9.0 1.0 -1 ------- null}
r -t 0.6316 -s 6 -d 5 -p cbr -e 1000 -c 3 -i 19 -a 3 -x {6.0 2.0 15 ------- null}
+ -t 0.6316 -s 5 -d 4 -p cbr -e 1000 -c 3 -i 19 -a 3 -x {6.0 2.0 15 ------- null}
- -t 0.6316 -s 5 -d 4 -p cbr -e 1000 -c 3 -i 19 -a 3 -x {6.0 2.0 15 ------- null}
h -t 0.6316 -s 5 -d 4 -p cbr -e 1000 -c 3 -i 19 -a 3 -x {6.0 2.0 -1 ------- null}
r -t 0.632133333333334 -s 3 -d 2 -p cbr -e 1000 -c 3 -i 11 -a 3 -x {6.0 2.0 9 ------- null}
r -t 0.6352 -s 5 -d 4 -p cbr -e 1000 -c 3 -i 18 -a 3 -x {6.0 2.0 14 ------- null}
+ -t 0.6352 -s 4 -d 3 -p cbr -e 1000 -c 3 -i 18 -a 3 -x {6.0 2.0 14 ------- null}
- -t 0.635626666666667 -s 4 -d 3 -p cbr -e 1000 -c 3 -i 17 -a 3 -x {6.0 2.0 13 ------- null}
h -t 0.635626666666667 -s 4 -d 3 -p cbr -e 1000 -c 3 -i 17 -a 3 -x {6.0 2.0 -1 ------- null}
+ -t 0.636 -s 6 -d 5 -p cbr -e 1000 -c 3 -i 21 -a 3 -x {6.0 2.0 17 ------- null}
- -t 0.636 -s 6 -d 5 -p cbr -e 1000 -c 3 -i 21 -a 3 -x {6.0 2.0 17 ------- null}
h -t 0.636 -s 6 -d 5 -p cbr -e 1000 -c 3 -i 21 -a 3 -x {6.0 2.0 -1 ------- null}
r -t 0.636533333333334 -s 4 -d 3 -p cbr -e 1000 -c 3 -i 13 -a 3 -x {6.0 2.0 11 ------- null}
+ -t 0.636533333333334 -s 3 -d 2 -p cbr -e 1000 -c 3 -i 13 -a 3 -x {6.0 2.0 11 ------- null}
- -t 0.636533333333334 -s 3 -d 2 -p cbr -e 1000 -c 3 -i 13 -a 3 -x {6.0 2.0 11 ------- null}
h -t 0.636533333333334 -s 3 -d 2 -p cbr -e 1000 -c 3 -i 13 -a 3 -x {6.0 2.0 -1 ------- null}
r -t 0.6396 -s 6 -d 5 -p cbr -e 1000 -c 3 -i 20 -a 3 -x {6.0 2.0 16 ------- null}
+ -t 0.6396 -s 5 -d 4 -p cbr -e 1000 -c 3 -i 20 -a 3 -x {6.0 2.0 16 ------- null}
- -t 0.6396 -s 5 -d 4 -p cbr -e 1000 -c 3 -i 20 -a 3 -x {6.0 2.0 16 ------- null}
h -t 0.6396 -s 5 -d 4 -p cbr -e 1000 -c 3 -i 20 -a 3 -x {6.0 2.0 -1 ------- null}
r -t 0.640133333333334 -s 3 -d 2 -p cbr -e 1000 -c 3 -i 12 -a 3 -x {6.0 2.0 10 ------- null}
- -t 0.64096 -s 4 -d 3 -p cbr -e 1000 -c 3 -i 18 -a 3 -x {6.0 2.0 14 ------- null}
h -t 0.64096 -s 4 -d 3 -p cbr -e 1000 -c 3 -i 18 -a 3 -x {6.0 2.0 -1 ------- null}
r -t 0.6432 -s 5 -d 4 -p cbr -e 1000 -c 3 -i 19 -a 3 -x {6.0 2.0 15 ------- null}
+ -t 0.6432 -s 4 -d 3 -p cbr -e 1000 -c 3 -i 19 -a 3 -x {6.0 2.0 15 ------- null}
+ -t 0.644 -s 6 -d 5 -p cbr -e 1000 -c 3 -i 22 -a 3 -x {6.0 2.0 18 ------- null}
- -t 0.644 -s 6 -d 5 -p cbr -e 1000 -c 3 -i 22 -a 3 -x {6.0 2.0 18 ------- null}
h -t 0.644 -s 6 -d 5 -p cbr -e 1000 -c 3 -i 22 -a 3 -x {6.0 2.0 -1 ------- null}
r -t 0.644533333333334 -s 4 -d 3 -p cbr -e 1000 -c 3 -i 14 -a 3 -x {6.0 2.0 12 ------- null}
+ -t 0.644533333333334 -s 3 -d 2 -p cbr -e 1000 -c 3 -i 14 -a 3 -x {6.0 2.0 12 ------- null}
- -t 0.644533333333334 -s 3 -d 2 -p cbr -e 1000 -c 3 -i 14 -a 3 -x {6.0 2.0 12 ------- null}
h -t 0.644533333333334 -s 3 -d 2 -p cbr -e 1000 -c 3 -i 14 -a 3 -x {6.0 2.0 -1 ------- null}
- -t 0.646293333333333 -s 4 -d 3 -p cbr -e 1000 -c 3 -i 19 -a 3 -x {6.0 2.0 15 ------- null}
h -t 0.646293333333333 -s 4 -d 3 -p cbr -e 1000 -c 3 -i 19 -a 3 -x {6.0 2.0 -1 ------- null}
r -t 0.6476 -s 6 -d 5 -p cbr -e 1000 -c 3 -i 21 -a 3 -x {6.0 2.0 17 ------- null}
+ -t 0.6476 -s 5 -d 4 -p cbr -e 1000 -c 3 -i 21 -a 3 -x {6.0 2.0 17 ------- null}
- -t 0.6476 -s 5 -d 4 -p cbr -e 1000 -c 3 -i 21 -a 3 -x {6.0 2.0 17 ------- null}
h -t 0.6476 -s 5 -d 4 -p cbr -e 1000 -c 3 -i 21 -a 3 -x {6.0 2.0 -1 ------- null}
r -t 0.648133333333334 -s 3 -d 2 -p cbr -e 1000 -c 3 -i 13 -a 3 -x {6.0 2.0 11 ------- null}
r -t 0.65008 -s 4 -d 3 -p tcp -e 1040 -c 2 -i 15 -a 2 -x {9.0 1.0 1 ------- null}
+ -t 0.65008 -s 3 -d 1 -p tcp -e 1040 -c 2 -i 15 -a 2 -x {9.0 1.0 1 ------- null}
- -t 0.65008 -s 3 -d 1 -p tcp -e 1040 -c 2 -i 15 -a 2 -x {9.0 1.0 1 ------- null}
h -t 0.65008 -s 3 -d 1 -p tcp -e 1040 -c 2 -i 15 -a 2 -x {9.0 1.0 -1 ------- null}
r -t 0.6512 -s 5 -d 4 -p cbr -e 1000 -c 3 -i 20 -a 3 -x {6.0 2.0 16 ------- null}
+ -t 0.6512 -s 4 -d 3 -p cbr -e 1000 -c 3 -i 20 -a 3 -x {6.0 2.0 16 ------- null}
- -t 0.651626666666667 -s 4 -d 3 -p cbr -e 1000 -c 3 -i 20 -a 3 -x {6.0 2.0 16 ------- null}
h -t 0.651626666666667 -s 4 -d 3 -p cbr -e 1000 -c 3 -i 20 -a 3 -x {6.0 2.0 -1 ------- null}
+ -t 0.652 -s 6 -d 5 -p cbr -e 1000 -c 3 -i 23 -a 3 -x {6.0 2.0 19 ------- null}
- -t 0.652 -s 6 -d 5 -p cbr -e 1000 -c 3 -i 23 -a 3 -x {6.0 2.0 19 ------- null}
h -t 0.652 -s 6 -d 5 -p cbr -e 1000 -c 3 -i 23 -a 3 -x {6.0 2.0 -1 ------- null}
r -t 0.6556 -s 6 -d 5 -p cbr -e 1000 -c 3 -i 22 -a 3 -x {6.0 2.0 18 ------- null}
+ -t 0.6556 -s 5 -d 4 -p cbr -e 1000 -c 3 -i 22 -a 3 -x {6.0 2.0 18 ------- null}
- -t 0.6556 -s 5 -d 4 -p cbr -e 1000 -c 3 -i 22 -a 3 -x {6.0 2.0 18 ------- null}
h -t 0.6556 -s 5 -d 4 -p cbr -e 1000 -c 3 -i 22 -a 3 -x {6.0 2.0 -1 ------- null}
r -t 0.655626666666667 -s 4 -d 3 -p tcp -e 1040 -c 2 -i 16 -a 2 -x {9.0 1.0 2 ------- null}
+ -t 0.655626666666667 -s 3 -d 1 -p tcp -e 1040 -c 2 -i 16 -a 2 -x {9.0 1.0 2 ------- null}
- -t 0.655626666666667 -s 3 -d 1 -p tcp -e 1040 -c 2 -i 16 -a 2 -x {9.0 1.0 2 ------- null}
h -t 0.655626666666667 -s 3 -d 1 -p tcp -e 1040 -c 2 -i 16 -a 2 -x {9.0 1.0 -1 ------- null}
r -t 0.656133333333334 -s 3 -d 2 -p cbr -e 1000 -c 3 -i 14 -a 3 -x {6.0 2.0 12 ------- null}
r -t 0.6592 -s 5 -d 4 -p cbr -e 1000 -c 3 -i 21 -a 3 -x {6.0 2.0 17 ------- null}
+ -t 0.6592 -s 4 -d 3 -p cbr -e 1000 -c 3 -i 21 -a 3 -x {6.0 2.0 17 ------- null}
- -t 0.6592 -s 4 -d 3 -p cbr -e 1000 -c 3 -i 21 -a 3 -x {6.0 2.0 17 ------- null}
h -t 0.6592 -s 4 -d 3 -p cbr -e 1000 -c 3 -i 21 -a 3 -x {6.0 2.0 -1 ------- null}
+ -t 0.66 -s 6 -d 5 -p cbr -e 1000 -c 3 -i 24 -a 3 -x {6.0 2.0 20 ------- null}
- -t 0.66 -s 6 -d 5 -p cbr -e 1000 -c 3 -i 24 -a 3 -x {6.0 2.0 20 ------- null}
h -t 0.66 -s 6 -d 5 -p cbr -e 1000 -c 3 -i 24 -a 3 -x {6.0 2.0 -1 ------- null}
r -t 0.66096 -s 4 -d 3 -p cbr -e 1000 -c 3 -i 17 -a 3 -x {6.0 2.0 13 ------- null}
+ -t 0.66096 -s 3 -d 2 -p cbr -e 1000 -c 3 -i 17 -a 3 -x {6.0 2.0 13 ------- null}