V -t * -v 1.0a5 -a 0
A -t * -n 1 -p 0 -o 0x7fffffff -c 30 -a 1
A -t * -h 1 -m 1073741823 -s 0
c -t * -i 1 -n Blue
c -t * -i 2 -n Red
c -t * -i 3 -n Green
n -t * -a 4 -s 4 -S UP -v circle -c black -i black
n -t * -a 0 -s 0 -S UP -v circle -c black -i black
n -t * -a 5 -s 5 -S UP -v circle -c black -i black
n -t * -a 1 -s 1 -S UP -v circle -c black -i black
n -t * -a 6 -s 6 -S UP -v circle -c black -i black
n -t * -a 2 -s 2 -S UP -v circle -c black -i black
n -t * -a 7 -s 7 -S UP -v circle -c black -i black
n -t * -a 3 -s 3 -S UP -v circle -c black -i black
l -t * -s 3 -d 0 -S UP -r 2000000 -D 0.0050000000000000001 -c black -o left-up
l -t * -s 3 -d 2 -S UP -r 2000000 -D 0.0050000000000000001 -c black -o left-down
l -t * -s 3 -d 1 -S UP -r 2000000 -D 0.0050000000000000001 -c black -o left
l -t * -s 4 -d 3 -S UP -r 600000 -D 0.01 -c black -o left
X -t * -n 8 -r 0.5Mb -D 40ms -o left
L -t * -s 8 -d 4 -o up
L -t * -s 8 -d 5 -o down
L -t * -s 8 -d 6 -o up
L -t * -s 8 -d 7 -o down
q -t * -s 3 -d 4 -a 0.5
q -t * -s 4 -d 3 -a 0.5
+ -t 0.5 -s 0 -d 3 -p tcp -e 40 -c 1 -i 0 -a 1 -x {0.0 4.0 0 ------- null}
- -t 0.5 -s 0 -d 3 -p tcp -e 40 -c 1 -i 0 -a 1 -x {0.0 4.0 0 ------- null}
h -t 0.5 -s 0 -d 3 -p tcp -e 40 -c 1 -i 0 -a 1 -x {0.0 4.0 -1 ------- null}
r -t 0.50516 -s 0 -d 3 -p tcp -e 40 -c 1 -i 0 -a 1 -x {0.0 4.0 0 ------- null}
+ -t 0.50516 -s 3 -d 4 -p tcp -e 40 -c 1 -i 0 -a 1 -x {0.0 4.0 0 ------- null}
- -t 0.50516 -s 3 -d 4 -p tcp -e 40 -c 1 -i 0 -a 1 -x {0.0 4.0 0 ------- null}
h -t 0.50516 -s 3 -d 4 -p tcp -e 40 -c 1 -i 0 -a 1 -x {0.0 4.0 -1 ------- null}
r -t 0.515693333333333 -s 3 -d 4 -p tcp -e 40 -c 1 -i 0 -a 1 -x {0.0 4.0 0 ------- null}
+ -t 0.515693333333333 -s 4 -d 3 -p ack -e 40 -c 1 -i 1 -a 1 -x {4.0 0.0 0 ------- null}
- -t 0.515693333333333 -s 4 -d 3 -p ack -e 40 -c 1 -i 1 -a 1 -x {4.0 0.0 0 ------- null}
h -t 0.515693333333333 -s 4 -d 3 -p ack -e 40 -c 1 -i 1 -a 1 -x {4.0 0.0 -1 ------- null}
r -t 0.526226666666667 -s 4 -d 3 -p ack -e 40 -c 1 -i 1 -a 1 -x {4.0 0.0 0 ------- null}
+ -t 0.526226666666667 -s 3 -d 0 -p ack -e 40 -c 1 -i 1 -a 1 -x {4.0 0.0 0 ------- null}
- -t 0.526226666666667 -s 3 -d 0 -p ack -e 40 -c 1 -i 1 -a 1 -x {4.0 0.0 0 ------- null}
h -t 0.526226666666667 -s 3 -d 0 -p ack -e 40 -c 1 -i 1 -a 1 -x {4.0 0.0 -1 ------- null}
r -t 0.531386666666667 -s 3 -d 0 -p ack -e 40 -c 1 -i 1 -a 1 -x {4.0 0.0 0 ------- null}
+ -t 0.531386666666667 -s 0 -d 3 -p tcp -e 1040 -c 1 -i 2 -a 1 -x {0.0 4.0 1 ------- null}
- -t 0.531386666666667 -s 0 -d 3 -p tcp -e 1040 -c 1 -i 2 -a 1 -x {0.0 4.0 1 ------- null}
h -t 0.531386666666667 -s 0 -d 3 -p tcp -e 1040 -c 1 -i 2 -a 1 -x {0.0 4.0 -1 ------- null}
+ -t 0.531386666666667 -s 0 -d 3 -p tcp -e 1040 -c 1 -i 3 -a 1 -x {0.0 4.0 2 ------- null}
- -t 0.535546666666667 -s 0 -d 3 -p tcp -e 1040 -c 1 -i 3 -a 1 -x {0.0 4.0 2 ------- null}
h -t 0.535546666666667 -s 0 -d 3 -p tcp -e 1040 -c 1 -i 3 -a 1 -x {0.0 4.0 -1 ------- null}
r -t 0.540546666666667 -s 0 -d 3 -p tcp -e 1040 -c 1 -i 2 -a 1 -x {0.0 4.0 1 ------- null}
+ -t 0.540546666666667 -s 3 -d 4 -p tcp -e 1040 -c 1 -i 2 -a 1 -x {0.0 4.0 1 ------- null}
- -t 0.540546666666667 -s 3 -d 4 -p tcp -e 1040 -c 1 -i 2 -a 1 -x {0.0 4.0 1 ------- null}
h -t 0.540546666666667 -s 3 -d 4 -p tcp -e 1040 -c 1 -i 2 -a 1 -x {0.0 4.0 -1 ------- null}
r -t 0.544706666666667 -s 0 -d 3 -p tcp -e 1040 -c 1 -i 3 -a 1 -x {0.0 4.0 2 ------- null}
+ -t 0.544706666666667 -s 3 -d 4 -p tcp -e 1040 -c 1 -i 3 -a 1 -x {0.0 4.0 2 ------- null}
- -t 0.554413333333333 -s 3 -d 4 -p tcp -e 1040 -c 1 -i 3 -a 1 -x {0.0 4.0 2 ------- null}
h -t 0.554413333333333 -s 3 -d 4 -p tcp -e 1040 -c 1 -i 3 -a 1 -x {0.0 4.0 -1 ------- null}
r -t 0.564413333333333 -s 3 -d 4 -p tcp -e 1040 -c 1 -i 2 -a 1 -x {0.0 4.0 1 ------- null}
+ -t 0.564413333333333 -s 4 -d 3 -p ack -e 40 -c 1 -i 4 -a 1 -x {4.0 0.0 1 ------- null}
- -t 0.564413333333333 -s 4 -d 3 -p ack -e 40 -c 1 -i 4 -a 1 -x {4.0 0.0 1 ------- null}
h -t 0.564413333333333 -s 4 -d 3 -p ack -e 40 -c 1 -i 4 -a 1 -x {4.0 0.0 -1 ------- null}
r -t 0.574946666666667 -s 4 -d 3 -p ack -e 40 -c 1 -i 4 -a 1 -x {4.0 0.0 1 ------- null}
+ -t 0.574946666666667 -s 3 -d 0 -p ack -e 40 -c 1 -i 4 -a 1 -x {4.0 0.0 1 ------- null}
- -t 0.574946666666667 -s 3 -d 0 -p ack -e 40 -c 1 -i 4 -a 1 -x {4.0 0.0 1 ------- null}
h -t 0.574946666666667 -s 3 -d 0 -p ack -e 40 -c 1 -i 4 -a 1 -x {4.0 0.0 -1 ------- null}
r -t 0.57828 -s 3 -d 4 -p tcp -e 1040 -c 1 -i 3 -a 1 -x {0.0 4.0 2 ------- null}
+ -t 0.57828 -s 4 -d 3 -p ack -e 40 -c 1 -i 5 -a 1 -x {4.0 0.0 2 ------- null}
- -t 0.57828 -s 4 -d 3 -p ack -e 40 -c 1 -i 5 -a 1 -x {4.0 0.0 2 ------- null}
h -t 0.57828 -s 4 -d 3 -p ack -e 40 -c 1 -i 5 -a 1 -x {4.0 0.0 -1 ------- null}
r -t 0.580106666666667 -s 3 -d 0 -p ack -e 40 -c 1 -i 4 -a 1 -x {4.0 0.0 1 ------- null}
+ -t 0.580106666666667 -s 0 -d 3 -p tcp -e 1040 -c 1 -i 6 -a 1 -x {0.0 4.0 3 ------- null}
- -t 0.580106666666667 -s 0 -d 3 -p tcp -e 1040 -c 1 -i 6 -a 1 -x {0.0 4.0 3 ------- null}
h -t 0.580106666666667 -s 0 -d 3 -p tcp -e 1040 -c 1 -i 6 -a 1 -x {0.0 4.0 -1 ------- null}
+ -t 0.580106666666667 -s 0 -d 3 -p tcp -e 1040 -c 1 -i 7 -a 1 -x {0.0 4.0 4 ------- null}
- -t 0.584266666666667 -s 0 -d 3 -p tcp -e 1040 -c 1 -i 7 -a 1 -x {0.0 4.0 4 ------- null}
h -t 0.584266666666667 -s 0 -d 3 -p tcp -e 1040 -c 1 -i 7 -a 1 -x {0.0 4.0 -1 ------- null}
r -t 0.588813333333333 -s 4 -d 3 -p ack -e 40 -c 1 -i 5 -a 1 -x {4.0 0.0 2 ------- null}
+ -t 0.588813333333333 -s 3 -d 0 -p ack -e 40 -c 1 -i 5 -a 1 -x {4.0 0.0 2 ------- null}
- -t 0.588813333333333 -s 3 -d 0 -p ack -e 40 -c 1 -i 5 -a 1 -x {4.0 0.0 2 ------- null}
h -t 0.588813333333333 -s 3 -d 0 -p ack -e 40 -c 1 -i 5 -a 1 -x {4.0 0.0 -1 ------- null}
r -t 0.589266666666667 -s 0 -d 3 -p tcp -e 1040 -c 1 -i 6 -a 1 -x {0.0 4.0 3 ------- null}
+ -t 0.589266666666667 -s 3 -d 4 -p tcp -e 1040 -c 1 -i 6 -a 1 -x {0.0 4.0 3 ------- null}
- -t 0.589266666666667 -s 3 -d 4 -p tcp -e 1040 -c 1 -i 6 -a 1 -x {0.0 4.0 3 ------- null}
h -t 0.589266666666667 -s 3 -d 4 -p tcp -e 1040 -c 1 -i 6 -a 1 -x {0.0 4.0 -1 ------- null}
r -t 0.593426666666667 -s 0 -d 3 -p tcp -e 1040 -c 1 -i 7 -a 1 -x {0.0 4.0 4 ------- null}
+ -t 0.593426666666667 -s 3 -d 4 -p tcp -e 1040 -c 1 -i 7 -a 1 -x {0.0 4.0 4 ------- null}
r -t 0.593973333333333 -s 3 -d 0 -p ack -e 40 -c 1 -i 5 -a 1 -x {4.0 0.0 2 ------- null}
+ -t 0.593973333333333 -s 0 -d 3 -p tcp -e 1040 -c 1 -i 8 -a 1 -x {0.0 4.0 5 ------- null}
- -t 0.593973333333333 -s 0 -d 3 -p tcp -e 1040 -c 1 -i 8 -a 1 -x {0.0 4.0 5 ------- null}
h -t 0.593973333333333 -s 0 -d 3 -p tcp -e 1040 -c 1 -i 8 -a 1 -x {0.0 4.0 -1 ------- null}
+ -t 0.593973333333333 -s 0 -d 3 -p tcp -e 1040 -c 1 -i 9 -a 1 -x {0.0 4.0 6 ------- null}
- -t 0.598133333333333 -s 0 -d 3 -p tcp -e 1040 -c 1 -i 9 -a 1 -x {0.0 4.0 6 ------- null}
h -t 0.598133333333333 -s 0 -d 3 -p tcp -e 1040 -c 1 -i 9 -a 1 -x {0.0 4.0 -1 ------- null}
- -t 0.603133333333333 -s 3 -d 4 -p tcp -e 1040 -c 1 -i 7 -a 1 -x {0.0 4.0 4 ------- null}
h -t 0.603133333333333 -s 3 -d 4 -p tcp -e 1040 -c 1 -i 7 -a 1 -x {0.0 4.0 -1 ------- null}
r -t 0.603133333333333 -s 0 -d 3 -p tcp -e 1040 -c 1 -i 8 -a 1 -x {0.0 4.0 5 ------- null}
+ -t 0.603133333333333 -s 3 -d 4 -p tcp -e 1040 -c 1 -i 8 -a 1 -x {0.0 4.0 5 ------- null}
r -t 0.607293333333333 -s 0 -d 3 -p tcp -e 1040 -c 1 -i 9 -a 1 -x {0.0 4.0 6 ------- null}
+ -t 0.607293333333333 -s 3 -d 4 -p tcp -e 1040 -c 1 -i 9 -a 1 -x {0.0 4.0 6 ------- null}
r -t 0.613133333333333 -s 3 -d 4 -p tcp -e 1040 -c 1 -i 6 -a 1 -x {0.0 4.0 3 ------- null}
+ -t 0.613133333333333 -s 4 -d 3 -p ack -e 40 -c 1 -i 10 -a 1 -x {4.0 0.0 3 ------- null}
- -t 0.613133333333333 -s 4 -d 3 -p ack -e 40 -c 1 -i 10 -a 1 -x {4.0 0.0 3 ------- null}
h -t 0.613133333333333 -s 4 -d 3 -p ack -e 40 -c 1 -i 10 -a 1 -x {4.0 0.0 -1 ------- null}
- -t 0.617 -s 3 -d 4 -p tcp -e 1040 -c 1 -i 8 -a 1 -x {0.0 4.0 5 ------- null}
h -t 0.617 -s 3 -d 4 -p tcp -e 1040 -c 1 -i 8 -a 1 -x {0.0 4.0 -1 ------- null}
r -t 0.623666666666667 -s 4 -d 3 -p ack -e 40 -c 1 -i 10 -a 1 -x {4.0 0.0 3 ------- null}
+ -t 0.623666666666667 -s 3 -d 0 -p ack -e 40 -c 1 -i 10 -a 1 -x {4.0 0.0 3 ------- null}
- -t 0.623666666666667 -s 3 -d 0 -p ack -e 40 -c 1 -i 10 -a 1 -x {4.0 0.0 3 ------- null}
h -t 0.623666666666667 -s 3 -d 0 -p ack -e 40 -c 1 -i 10 -a 1 -x {4.0 0.0 -1 ------- null}
r -t 0.627 -s 3 -d 4 -p tcp -e 1040 -c 1 -i 7 -a 1 -x {0.0 4.0 4 ------- null}
+ -t 0.627 -s 4 -d 3 -p ack -e 40 -c 1 -i 11 -a 1 -x {4.0 0.0 4 ------- null}
- -t 0.627 -s 4 -d 3 -p ack -e 40 -c 1 -i 11 -a 1 -x {4.0 0.0 4 ------- null}
h -t 0.627 -s 4 -d 3 -p ack -e 40 -c 1 -i 11 -a 1 -x {4.0 0.0 -1 ------- null}
r -t 0.628826666666667 -s 3 -d 0 -p ack -e 40 -c 1 -i 10 -a 1 -x {4.0 0.0 3 ------- null}
+ -t 0.628826666666667 -s 0 -d 3 -p tcp -e 1040 -c 1 -i 12 -a 1 -x {0.0 4.0 7 ------- null}
- -t 0.628826666666667 -s 0 -d 3 -p tcp -e 1040 -c 1 -i 12 -a 1 -x {0.0 4.0 7 ------- null}
h -t 0.628826666666667 -s 0 -d 3 -p tcp -e 1040 -c 1 -i 12 -a 1 -x {0.0 4.0 -1 ------- null}
+ -t 0.628826666666667 -s 0 -d 3 -p tcp -e 1040 -c 1 -i 13 -a 1 -x {0.0 4.0 8 ------- null}
- -t 0.630866666666667 -s 3 -d 4 -p tcp -e 1040 -c 1 -i 9 -a 1 -x {0.0 4.0 6 ------- null}
h -t 0.630866666666667 -s 3 -d 4 -p tcp -e 1040 -c 1 -i 9 -a 1 -x {0.0 4.0 -1 ------- null}
- -t 0.632986666666667 -s 0 -d 3 -p tcp -e 1040 -c 1 -i 13 -a 1 -x {0.0 4.0 8 ------- null}
h -t 0.632986666666667 -s 0 -d 3 -p tcp -e 1040 -c 1 -i 13 -a 1 -x {0.0 4.0 -1 ------- null}
r -t 0.637533333333333 -s 4 -d 3 -p ack -e 40 -c 1 -i 11 -a 1 -x {4.0 0.0 4 ------- null}
+ -t 0.637533333333333 -s 3 -d 0 -p ack -e 40 -c 1 -i 11 -a 1 -x {4.0 0.0 4 ------- null}
- -t 0.637533333333333 -s 3 -d 0 -p ack -e 40 -c 1 -i 11 -a 1 -x {4.0 0.0 4 ------- null}
h -t 0.637533333333333 -s 3 -d 0 -p ack -e 40 -c 1 -i 11 -a 1 -x {4.0 0.0 -1 ------- null}
r -t 0.637986666666667 -s 0 -d 3 -p tcp -e 1040 -c 1 -i 12 -a 1 -x {0.0 4.0 7 ------- null}
+ -t 0.637986666666667 -s 3 -d 4 -p tcp -e 1040 -c 1 -i 12 -a 1 -x {0.0 4.0 7 ------- null}
r -t 0.640866666666667 -s 3 -d 4 -p tcp -e 1040 -c 1 -i 8 -a 1 -x {0.0 4.0 5 ------- null}
+ -t 0.640866666666667 -s 4 -d 3 -p ack -e 40 -c 1 -i 14 -a 1 -x {4.0 0.0 5 ------- null}
- -t 0.640866666666667 -s 4 -d 3 -p ack -e 40 -c 1 -i 14 -a 1 -x {4.0 0.0 5 ------- null}
h -t 0.640866666666667 -s 4 -d 3 -p ack -e 40 -c 1 -i 14 -a 1 -x {4.0 0.0 -1 ------- null}
r -t 0.642146666666667 -s 0 -d 3 -p tcp -e 1040 -c 1 -i 13 -a 1 -x {0.0 4.0 8 ------- null}
+ -t 0.642146666666667 -s 3 -d 4 -p tcp -e 1040 -c 1 -i 13 -a 1 -x {0.0 4.0 8 ------- null}
r -t 0.642693333333333 -s 3 -d 0 -p ack -e 40 -c 1 -i 11 -a 1 -x {4.0 0.0 4 ------- null}
+ -t 0.642693333333333 -s 0 -d 3 -p tcp -e 1040 -c 1 -i 15 -a 1 -x {0.0 4.0 9 ------- null}
- -t 0.642693333333333 -s 0 -d 3 -p tcp -e 1040 -c 1 -i 15 -a 1 -x {0.0 4.0 9 ------- null}
h -t 0.642693333333333 -s 0 -d 3 -p tcp -e 1040 -c 1 -i 15 -a 1 -x {0.0 4.0 -1 ------- null}
+ -t 0.642693333333333 -s 0 -d 3 -p tcp -e 1040 -c 1 -i 16 -a 1 -x {0.0 4.0 10 ------- null}
- -t 0.644733333333333 -s 3 -d 4 -p tcp -e 1040 -c 1 -i 12 -a 1 -x {0.0 4.0 7 ------- null}
h -t 0.644733333333333 -s 3 -d 4 -p tcp -e 1040 -c 1 -i 12 -a 1 -x {0.0 4.0 -1 ------- null}
- -t 0.646853333333333 -s 0 -d 3 -p tcp -e 1040 -c 1 -i 16 -a 1 -x {0.0 4.0 10 ------- null}
h -t 0.646853333333333 -s 0 -d 3 -p tcp -e 1040 -c 1 -i 16 -a 1 -x {0.0 4.0 -1 ------- null}
r -t 0.6514 -s 4 -d 3 -p ack -e 40 -c 1 -i 14 -a 1 -x {4.0 0.0 5 ------- null}
+ -t 0.6514 -s 3 -d 0 -p ack -e 40 -c 1 -i 14 -a 1 -x {4.0 0.0 5 ------- null}
- -t 0.6514 -s 3 -d 0 -p ack -e 40 -c 1 -i 14 -a 1 -x {4.0 0.0 5 ------- null}
h -t 0.6514 -s 3 -d 0 -p ack -e 40 -c 1 -i 14 -a 1 -x {4.0 0.0 -1 ------- null}
r -t 0.651853333333333 -s 0 -d 3 -p tcp -e 1040 -c 1 -i 15 -a 1 -x {0.0 4.0 9 ------- null}
+ -t 0.651853333333333 -s 3 -d 4 -p tcp -e 1040 -c 1 -i 15 -a 1 -x {0.0 4.0 9 ------- null}
r -t 0.654733333333333 -s 3 -d 4 -p tcp -e 1040 -c 1 -i 9 -a 1 -x {0.0 4.0 6 ------- null}
+ -t 0.654733333333333 -s 4 -d 3 -p ack -e 40 -c 1 -i 17 -a 1 -x {4.0 0.0 6 ------- null}
- -t 0.654733333333333 -s 4 -d 3 -p ack -e 40 -c 1 -i 17 -a 1 -x {4.0 0.0 6 ------- null}
h -t 0.654733333333333 -s 4 -d 3 -p ack -e 40 -c 1 -i 17 -a 1 -x {4.0 0.0 -1 ------- null}
r -t 0.656013333333333 -s 0 -d 3 -p tcp -e 1040 -c 1 -i 16 -a 1 -x {0.0 4.0 10 ------- null}
+ -t 0.656013333333333 -s 3 -d 4 -p tcp -e 1040 -c 1 -i 16 -a 1 -x {0.0 4.0 10 ------- null}
r -t 0.65656 -s 3 -d 0 -p ack -e 40 -c 1 -i 14 -a 1 -x {4.0 0.0 5 ------- null}
+ -t 0.65656 -s 0 -d 3 -p tcp -e 1040 -c 1 -i 18 -a 1 -x {0.0 4.0 11 ------- null}
- -t 0.65656 -s 0 -d 3 -p tcp -e 1040 -c 1 -i 18 -a 1 -x {0.0 4.0 11 ------- null}
h -t 0.65656 -s 0 -d 3 -p tcp -e 1040 -c 1 -i 18 -a 1 -x {0.0 4.0 -1 ------- null}
+ -t 0.65656 -s 0 -d 3 -p tcp -e 1040 -c 1 -i 19 -a 1 -x {0.0 4.0 12 ------- null}
- -t 0.6586 -s 3 -d 4 -p tcp -e 1040 -c 1 -i 13 -a 1 -x {0.0 4.0 8 ------- null}
h -t 0.6586 -s 3 -d 4 -p tcp -e 1040 -c 1 -i 13 -a 1 -x {0.0 4.0 -1 ------- null}
- -t 0.66072 -s 0 -d 3 -p tcp -e 1040 -c 1 -i 19 -a 1 -x {0.0 4.0 12 ------- null}
h -t 0.66072 -s 0 -d 3 -p tcp -e 1040 -c 1 -i 19 -a 1 -x {0.0 4.0 -1 ------- null}
r -t 0.665266666666667 -s 4 -d 3 -p ack -e 40 -c 1 -i 17 -a 1 -x {4.0 0.0 6 ------- null}
+ -t 0.665266666666667 -s 3 -d 0 -p ack -e 40 -c 1 -i 17 -a 1 -x {4.0 0.0 6 ------- null}
- -t 0.665266666666667 -s 3 -d 0 -p ack -e 40 -c 1 -i 17 -a 1 -x {4.0 0.0 6 ------- null}
h -t 0.665266666666667 -s 3 -d 0 -p ack -e 40 -c 1 -i 17 -a 1 -x {4.0 0.0 -1 ------- null}
r -t 0.66572 -s 0 -d 3 -p tcp -e 1040 -c 1 -i 18 -a 1 -x {0.0 4.0 11 ------- null}
+ -t 0.66572 -s 3 -d 4 -p tcp -e 1040 -c 1 -i 18 -a 1 -x {0.0 4.0 11 ------- null}
r -t 0.6686 -s 3 -d 4 -p tcp -e 1040 -c 1 -i 12 -a 1 -x {0.0 4.0 7 ------- null}
+ -t 0.6686 -s 4 -d 3 -p ack -e 40 -c 1 -i 20 -a 1 -x {4.0 0.0 7 ------- null}
- -t 0.6686 -s 4 -d 3 -p ack -e 40 -c 1 -i 20 -a 1 -x {4.0 0.0 7 ------- null}
h -t 0.6686 -s 4 -d 3 -p ack -e 40 -c 1 -i 20 -a 1 -x {4.0 0.0 -1 ------- null}
r -t 0.66988 -s 0 -d 3 -p tcp -e 1040 -c 1 -i 19 -a 1 -x {0.0 4.0 12 ------- null}
+ -t 0.66988 -s 3 -d 4 -p tcp -e 1040 -c 1 -i 19 -a 1 -x {0.0 4.0 12 ------- null}
r -t 0.670426666666667 -s 3 -d 0 -p ack -e 40 -c 1 -i 17 -a 1 -x {4.0 0.0 6 ------- null}
+ -t 0.670426666666667 -s 0 -d 3 -p tcp -e 1040 -c 1 -i 21 -a 1 -x {0.0 4.0 13 ------- null}
- -t 0.670426666666667 -s 0 -d 3 -p tcp -e 1040 -c 1 -i 21 -a 1 -x {0.0 4.0 13 ------- null}
h -t 0.670426666666667 -s 0 -d 3 -p tcp -e 1040 -c 1 -i 21 -a 1 -x {0.0 4.0 -1 ------- null}
+ -t 0.670426666666667 -s 0 -d 3 -p tcp -e 1040 -c 1 -i 22 -a 1 -x {0.0 4.0 14 ------- null}
- -t 0.672466666666667 -s 3 -d 4 -p tcp -e 1040 -c 1 -i 15 -a 1 -x {0.0 4.0 9 ------- null}
h -t 0.672466666666667 -s 3 -d 4 -p tcp -e 1040 -c 1 -i 15 -a 1 -x {0.0 4.0 -1 ------- null}
- -t 0.674586666666667 -s 0 -d 3 -p tcp -e 1040 -c 1 -i 22 -a 1 -x {0.0 4.0 14 ------- null}
h -t 0.674586666666667 -s 0 -d 3 -p tcp -e 1040 -c 1 -i 22 -a 1 -x {0.0 4.0 -1 ------- null}
r -t 0.679133333333333 -s 4 -d 3 -p ack -e 40 -c 1 -i 20 -a 1 -x {4.0 0.0 7 ------- null}
+ -t 0.679133333333333 -s 3 -d 0 -p ack -e 40 -c 1 -i 20 -a 1 -x {4.0 0.0 7 ------- null}
- -t 0.679133333333333 -s 3 -d 0 -p ack -e 40 -c 1 -i 20 -a 1 -x {4.0 0.0 7 ------- null}
h -t 0.679133333333333 -s 3 -d 0 -p ack -e 40 -c 1 -i 20 -a 1 -x {4.0 0.0 -1 ------- null}
r -t 0.679586666666667 -s 0 -d 3 -p tcp -e 1040 -c 1 -i 21 -a 1 -x {0.0 4.0 13 ------- null}
+ -t 0.679586666666667 -s 3 -d 4 -p tcp -e 1040 -c 1 -i 21 -a 1 -x {0.0 4.0 13 ------- null}
r -t 0.682466666666667 -s 3 -d 4 -p tcp -e 1040 -c 1 -i 13 -a 1 -x {0.0 4.0 8 ------- null}
+ -t 0.682466666666667 -s 4 -d 3 -p ack -e 40 -c 1 -i 23 -a 1 -x {4.0 0.0 8 ------- null}
- -t 0.682466666666667 -s 4 -d 3 -p ack -e 40 -c 1 -i 23 -a 1 -x {4.0 0.0 8 ------- null}
h -t 0.682466666666667 -s 4 -d 3 -p ack -e 40 -c 1 -i 23 -a 1 -x {4.0 0.0 -1 ------- null}
r -t 0.683746666666667 -s 0 -d 3 -p tcp -e 1040 -c 1 -i 22 -a 1 -x {0.0 4.0 14 ------- null}
+ -t 0.683746666666667 -s 3 -d 4 -p tcp -e 1040 -c 1 -i 22 -a 1 -x {0.0 4.0 14 ------- null}
r -t 0.684293333333333 -s 3 -d 0 -p ack -e 40 -c 1 -i 20 -a 1 -x {4.0 0.0 7 ------- null}
+ -t 0.684293333333333 -s 0 -d 3 -p tcp -e 1040 -c 1 -i 24 -a 1 -x {0.0 4.0 15 ------- null}
- -t 0.684293333333333 -s 0 -d 3 -p tcp -e 1040 -c 1 -i 24 -a 1 -x {0.0 4.0 15 ------- null}
h -t 0.684293333333333 -s 0 -d 3 -p tcp -e 1040 -c 1 -i 24 -a 1 -x {0.0 4.0 -1 ------- null}
+ -t 0.684293333333333 -s 0 -d 3 -p tcp -e 1040 -c 1 -i 25 -a 1 -x {0.0 4.0 16 ------- null}
- -t 0.686333333333333 -s 3 -d 4 -p tcp -e 1040 -c 1 -i 16 -a 1 -x {0.0 4.0 10 ------- null}
h -t 0.686333333333333 -s 3 -d 4 -p tcp -e 1040 -c 1 -i 16 -a 1 -x {0.0 4.0 -1 ------- null}
- -t 0.688453333333333 -s 0 -d 3 -p tcp -e 1040 -c 1 -i 25 -a 1 -x {0.0 4.0 16 ------- null}
h -t 0.688453333333333 -s 0 -d 3 -p tcp -e 1040 -c 1 -i 25 -a 1 -x {0.0 4.0 -1 ------- null}
r -t 0.693 -s 4 -d 3 -p ack -e 40 -c 1 -i 23 -a 1 -x {4.0 0.0 8 ------- null}
+ -t 0.693 -s 3 -d 0 -p ack -e 40 -c 1 -i 23 -a 1 -x {4.0 0.0 8 ------- null}
- -t 0.693 -s 3 -d 0 -p ack -e 40 -c 1 -i 23 -a 1 -x {4.0 0.0 8 ------- null}
h -t 0.693 -s 3 -d 0 -p ack -e 40 -c 1 -i 23 -a 1 -x {4.0 0.0 -1 ------- null}
r -t 0.693453333333333 -s 0 -d 3 -p tcp -e 1040 -c 1 -i 24 -a 1 -x {0.0 4.0 15 ------- null}
+ -t 0.693453333333333 -s 3 -d 4 -p tcp -e 1040 -c 1 -i 24 -a 1 -x {0.0 4.0 15 ------- null}
r -t 0.696333333333333 -s 3 -d 4 -p tcp -e 1040 -c 1 -i 15 -a 1 -x {0.0 4.0 9 ------- null}
+ -t 0.696333333333333 -s 4 -d 3 -p ack -e 40 -c 1 -i 26 -a 1 -x {4.0 0.0 9 ------- null}
- -t 0.696333333333333 -s 4 -d 3 -p ack -e 40 -c 1 -i 26 -a 1 -x {4.0 0.0 9 ------- null}
h -t 0.696333333333333 -s 4 -d 3 -p ack -e 40 -c 1 -i 26 -a 1 -x {4.0 0.0 -1 ------- null}
r -t 0.697613333333333 -s 0 -d 3 -p tcp -e 1040 -c 1 -i 25 -a 1 -x {0.0 4.0 16 ------- null}
+ -t 0.697613333333333 -s 3 -d 4 -p tcp -e 1040 -c 1 -i 25 -a 1 -x {0.0 4.0 16 ------- null}
r -t 0.69816 -s 3 -d 0 -p ack -e 40 -c 1 -i 23 -a 1 -x {4.0 0.0 8 ------- null}
+ -t 0.69816 -s 0 -d 3 -p tcp -e 1040 -c 1 -i 27 -a 1 -x {0.0 4.0 17 ------- null}
- -t 0.69816 -s 0 -d 3 -p tcp -e 1040 -c 1 -i 27 -a 1 -x {0.0 4.0 17 ------- null}
h -t 0.69816 -s 0 -d 3 -p tcp -e 1040 -c 1 -i 27 -a 1 -x {0.0 4.0 -1 ------- null}
+ -t 0.69816 -s 0 -d 3 -p tcp -e 1040 -c 1 -i 28 -a 1 -x {0.0 4.0 18 ------- null}
- -t 0.7002 -s 3 -d 4 -p tcp -e 1040 -c 1 -i 18 -a 1 -x {0.0 4.0 11 ------- null}
h -t 0.7002 -s 3 -d 4 -p tcp -e 1040 -c 1 -i 18 -a 1 -x {0.0 4.0 -1 ------- null}
- -t 0.70232 -s 0 -d 3 -p tcp -e 1040 -c 1 -i 28 -a 1 -x {0.0 4.0 18 ------- null}
h -t 0.70232 -s 0 -d 3 -p tcp -e 1040 -c 1 -i 28 -a 1 -x {0.0 4.0 -1 ------- null}
r -t 0.706866666666667 -s 4 -d 3 -p ack -e 40 -c 1 -i 26 -a 1 -x {4.0 0.0 9 ------- null}
+ -t 0.706866666666667 -s 3 -d 0 -p ack -e 40 -c 1 -i 26 -a 1 -x {4.0 0.0 9 ------- null}
- -t 0.706866666666667 -s 3 -d 0 -p ack -e 40 -c 1 -i 26 -a 1 -x {4.0 0.0 9 ------- null}
h -t 0.706866666666667 -s 3 -d 0 -p ack -e 40 -c 1 -i 26 -a 1 -x {4.0 0.0 -1 ------- null}
r -t 0.70732 -s 0 -d 3 -p tcp -e 1040 -c 1 -i 27 -a 1 -x {0.0 4.0 17 ------- null}
+ -t 0.70732 -s 3 -d 4 -p tcp -e 1040 -c 1 -i 27 -a 1 -x {0.0 4.0 17 ------- null}
r -t 0.7102 -s 3 -d 4 -p tcp -e 1040 -c 1 -i 16 -a 1 -x {0.0 4.0 10 ------- null}
+ -t 0.7102 -s 4 -d 3 -p ack -e 40 -c 1 -i 29 -a 1 -x {4.0 0.0 10 ------- null}
- -t 0.7102 -s 4 -d 3 -p ack -e 40 -c 1 -i 29 -a 1 -x {4.0 0.0 10 ------- null}
h -t 0.7102 -s 4 -d 3 -p ack -e 40 -c 1 -i 29 -a 1 -x {4.0 0.0 -1 ------- null}
r -t 0.71148 -s 0 -d 3 -p tcp -e 1040 -c 1 -i 28 -a 1 -x {0.0 4.0 18 ------- null}
+ -t 0.71148 -s 3 -d 4 -p tcp -e 1040 -c 1 -i 28 -a 1 -x {0.0 4.0 18 ------- null}
r -t 0.712026666666667 -s 3 -d 0 -p ack -e 40 -c 1 -i 26 -a 1 -x {4.0 0.0 9 ------- null}
+ -t 0.712026666666667 -s 0 -d 3 -p tcp -e 1040 -c 1 -i 30 -a 1 -x {0.0 4.0 19 ------- null}
- -t 0.712026666666667 -s 0 -d 3 -p tcp -e 1040 -c 1 -i 30 -a 1 -x {0.0 4.0 19 ------- null}
h -t 0.712026666666667 -s 0 -d 3 -p tcp -e 1040 -c 1 -i 30 -a 1 -x {0.0 4.0 -1 ------- null}
+ -t 0.712026666666667 -s 0 -d 3 -p tcp -e 1040 -c 1 -i 31 -a 1 -x {0.0 4.0 20 ------- null}
- -t 0.714066666666667 -s 3 -d 4 -p tcp -e 1040 -c 1 -i 19 -a 1 -x {0.0 4.0 12 ------- null}
h -t 0.714066666666667 -s 3 -d 4 -p tcp -e 1040 -c 1 -i 19 -a 1 -x {0.0 4.0 -1 ------- null}
- -t 0.716186666666667 -s 0 -d 3 -p tcp -e 1040 -c 1 -i 31 -a 1 -x {0.0 4.0 20 ------- null}
h -t 0.716186666666667 -s 0 -d 3 -p tcp -e 1040 -c 1 -i 31 -a 1 -x {0.0 4.0 -1 ------- null}
r -t 0.720733333333333 -s 4 -d 3 -p ack -e 40 -c 1 -i 29 -a 1 -x {4.0 0.0 10 ------- null}
+ -t 0.720733333333333 -s 3 -d 0 -p ack -e 40 -c 1 -i 29 -a 1 -x {4.0 0.0 10 ------- null}
- -t 0.720733333333333 -s 3 -d 0 -p ack -e 40 -c 1 -i 29 -a 1 -x {4.0 0.0 10 ------- null}
h -t 0.720733333333333 -s 3 -d 0 -p ack -e 40 -c 1 -i 29 -a 1 -x {4.0 0.0 -1 ------- null}
r -t 0.721186666666667 -s 0 -d 3 -p tcp -e 1040 -c 1 -i 30 -a 1 -x {0.0 4.0 19 ------- null}
+ -t 0.721186666666667 -s 3 -d 4 -p tcp -e 1040 -c 1 -i 30 -a 1 -x {0.0 4.0 19 ------- null}
r -t 0.724066666666667 -s 3 -d 4 -p tcp -e 1040 -c 1 -i 18 -a 1 -x {0.0 4.0 11 ------- null}
+ -t 0.724066666666667 -s 4 -d 3 -p ack -e 40 -c 1 -i 32 -a 1 -x {4.0 0.0 11 ------- null}
- -t 0.724066666666667 -s 4 -d 3 -p ack -e 40 -c 1 -i 32 -a 1 -x {4.0 0.0 11 ------- null}
h -t 0.724066666666667 -s 4 -d 3 -p ack -e 40 -c 1 -i 32 -a 1 -x {4.0 0.0 -1 ------- null}
r -t 0.725346666666667 -s 0 -d 3 -p tcp -e 1040 -c 1 -i 31 -a 1 -x {0.0 4.0 20 ------- null}
+ -t 0.725346666666667 -s 3 -d 4 -p tcp -e 1040 -c 1 -i 31 -a 1 -x {0.0 4.0 20 ------- null}
r -t 0.725893333333334 -s 3 -d 0 -p ack -e 40 -c 1 -i 29 -a 1 -x {4.0 0.0 10 ------- null}
+ -t 0.725893333333334 -s 0 -d 3 -p tcp -e 1040 -c 1 -i 33 -a 1 -x {0.0 4.0 21 ------- null}
- -t 0.725893333333334 -s 0 -d 3 -p tcp -e 1040 -c 1 -i 33 -a 1 -x {0.0 4.0 21 ------- null}
h -t 0.725893333333334 -s 0 -d 3 -p tcp -e 1040 -c 1 -i 33 -a 1 -x {0.0 4.0 -1 ------- null}
+ -t 0.725893333333334 -s 0 -d 3 -p tcp -e 1040 -c 1 -i 34 -a 1 -x {0.0 4.0 22 ------- null}
- -t 0.727933333333334 -s 3 -d 4 -p tcp -e 1040 -c 1 -i 21 -a 1 -x {0.0 4.0 13 ------- null}
h -t 0.727933333333334 -s 3 -d 4 -p tcp -e 1040 -c 1 -i 21 -a 1 -x {0.0 4.0 -1 ------- null}
- -t 0.730053333333334 -s 0 -d 3 -p tcp -e 1040 -c 1 -i 34 -a 1 -x {0.0 4.0 22 ------- null}
h -t 0.730053333333334 -s 0 -d 3 -p tcp -e 1040 -c 1 -i 34 -a 1 -x {0.0 4.0 -1 ------- null}
r -t 0.7346 -s 4 -d 3 -p ack -e 40 -c 1 -i 32 -a 1 -x {4.0 0.0 11 ------- null}
+ -t 0.7346 -s 3 -d 0 -p ack -e 40 -c 1 -i 32 -a 1 -x {4.0 0.0 11 ------- null}
- -t 0.7346 -s 3 -d 0 -p ack -e 40 -c 1 -i 32 -a 1 -x {4.0 0.0 11 ------- null}
h -t 0.7346 -s 3 -d 0 -p ack -e 40 -c 1 -i 32 -a 1 -x {4.0 0.0 -1 ------- null}
r -t 0.735053333333333 -s 0 -d 3 -p tcp -e 1040 -c 1 -i 33 -a 1 -x {0.0 4.0 21 ------- null}
+ -t 0.735053333333333 -s 3 -d 4 -p tcp -e 1040 -c 1 -i 33 -a 1 -x {0.0 4.0 21 ------- null}
r -t 0.737933333333334 -s 3 -d 4 -p tcp -e 1040 -c 1 -i 19 -a 1 -x {0.0 4.0 12 ------- null}
+ -t 0.737933333333334 -s 4 -d 3 -p ack -e 40 -c 1 -i 35 -a 1 -x {4.0 0.0 12 ------- null}
- -t 0.737933333333334 -s 4 -d 3 -p ack -e 40 -c 1 -i 35 -a 1 -x {4.0 0.0 12 ------- null}
h -t 0.737933333333334 -s 4 -d 3 -p ack -e 40 -c 1 -i 35 -a 1 -x {4.0 0.0 -1 ------- null}
r -t 0.739213333333333 -s 0 -d 3 -p tcp -e 1040 -c 1 -i 34 -a 1 -x {0.0 4.0 22 ------- null}
+ -t 0.739213333333333 -s 3 -d 4 -p tcp -e 1040 -c 1 -i 34 -a 1 -x {0.0 4.0 22 ------- null}
r -t 0.73976 -s 3 -d 0 -p ack -e 40 -c 1 -i 32 -a 1 -x {4.0 0.0 11 ------- null}
+ -t 0.73976 -s 0 -d 3 -p tcp -e 1040 -c 1 -i 36 -a 1 -x {0.0 4.0 23 ------- null}
- -t 0.73976 -s 0 -d 3 -p tcp -e 1040 -c 1 -i 36 -a 1 -x {0.0 4.0 23 ------- null}
h -t 0.73976 -s 0 -d 3 -p tcp -e 1040 -c 1 -i 36 -a 1 -x {0.0 4.0 -1 ------- null}
+ -t 0.73976 -s 0 -d 3 -p tcp -e 1040 -c 1 -i 37 -a 1 -x {0.0 4.0 24 ------- null}
- -t 0.7418 -s 3 -d 4 -p tcp -e 1040 -c 1 -i 22 -a 1 -x {0.0 4.0 14 ------- null}
h -t 0.7418 -s 3 -d 4 -p tcp -e 1040 -c 1 -i 22 -a 1 -x {0.0 4.0 -1 ------- null}
- -t 0.74392 -s 0 -d 3 -p tcp -e 1040 -c 1 -i 37 -a 1 -x {0.0 4.0 24 ------- null}
h -t 0.74392 -s 0 -d 3 -p tcp -e 1040 -c 1 -i 37 -a 1 -x {0.0 4.0 -1 ------- null}
r -t 0.748466666666667 -s 4 -d 3 -p ack -e 40 -c 1 -i 35 -a 1 -x {4.0 0.0 12 ------- null}
+ -t 0.748466666666667 -s 3 -d 0 -p ack -e 40 -c 1 -i 35 -a 1 -x {4.0 0.0 12 ------- null}
- -t 0.748466666666667 -s 3 -d 0 -p ack -e 40 -c 1 -i 35 -a 1 -x {4.0 0.0 12 ------- null}
h -t 0.748466666666667 -s 3 -d 0 -p ack -e 40 -c 1 -i 35 -a 1 -x {4.0 0.0 -1 ------- null}
r -t 0.74892 -s 0 -d 3 -p tcp -e 1040 -c 1 -i 36 -a 1 -x {0.0 4.0 23 ------- null}
+ -t 0.74892 -s 3 -d 4 -p tcp -e 1040 -c 1 -i 36 -a 1 -x {0.0 4.0 23 ------- null}
r -t 0.7518 -s 3 -d 4 -p tcp -e 1040 -c 1 -i 21 -a 1 -x {0.0 4.0 13 ------- null}
+ -t 0.7518 -s 4 -d 3 -p ack -e 40 -c 1 -i 38 -a 1 -x {4.0 0.0 13 ------- null}
- -t 0.7518 -s 4 -d 3 -p ack -e 40 -c 1 -i 38 -a 1 -x {4.0 0.0 13 ------- null}
h -t 0.7518 -s 4 -d 3 -p ack -e 40 -c 1 -i 38 -a 1 -x {4.0 0.0 -1 ------- null}
r -t 0.75308 -s 0 -d 3 -p tcp -e 1040 -c 1 -i 37 -a 1 -x {0.0 4.0 24 ------- null}
+ -t 0.75308 -s 3 -d 4 -p tcp -e 1040 -c 1 -i 37 -a 1 -x {0.0 4.0 24 ------- null}
d -t 0.75308 -s 3 -d 4 -p tcp -e 1040 -c 1 -i 37 -a 1 -x {0.0 4.0 24 ------- null}
r -t 0.753626666666667 -s 3 -d 0 -p ack -e 40 -c 1 -i 35 -a 1 -x {4.0 0.0 12 ------- null}
+ -t 0.753626666666667 -s 0 -d 3 -p tcp -e 1040 -c 1 -i 39 -a 1 -x {0.0 4.0 25 ------- null}
- -t 0.753626666666667 -s 0 -d 3 -p tcp -e 1040 -c 1 -i 39 -a 1 -x {0.0 4.0 25 ------- null}
h -t 0.753626666666667 -s 0 -d 3 -p tcp -e 1040 -c 1 -i 39 -a 1 -x {0.0 4.0 -1 ------- null}
+ -t 0.753626666666667 -s 0 -d 3 -p tcp -e 1040 -c 1 -i 40 -a 1 -x {0.0 4.0 26 ------- null}
- -t 0.755666666666667 -s 3 -d 4 -p tcp -e 1040 -c 1 -i 24 -a 1 -x {0.0 4.0 15 ------- null}
h -t 0.755666666666667 -s 3 -d 4 -p tcp -e 1040 -c 1 -i 24 -a 1 -x {0.0 4.0 -1 ------- null}
- -t 0.757786666666667 -s 0 -d 3 -p tcp -e 1040 -c 1 -i 40 -a 1 -x {0.0 4.0 26 ------- null}
h -t 0.757786666666667 -s 0 -d 3 -p tcp -e 1040 -c 1 -i 40 -a 1 -x {0.0 4.0 -1 ------- null}
r -t 0.762333333333334 -s 4 -d 3 -p ack -e 40 -c 1 -i 38 -a 1 -x {4.0 0.0 13 ------- null}
+ -t 0.762333333333334 -s 3 -d 0 -p ack -e 40 -c 1 -i 38 -a 1 -x {4.0 0.0 13 ------- null}
- -t 0.762333333333334 -s 3 -d 0 -p ack -e 40 -c 1 -i 38 -a 1 -x {4.0 0.0 13 ------- null}
h -t 0.762333333333334 -s 3 -d 0 -p ack -e 40 -c 1 -i 38 -a 1 -x {4.0 0.0 -1 ------- null}
r -t 0.762786666666667 -s 0 -d 3 -p tcp -e 1040 -c 1 -i 39 -a 1 -x {0.0 4.0 25 ------- null}
+ -t 0.762786666666667 -s 3 -d 4 -p tcp -e 1040 -c 1 -i 39 -a 1 -x {0.0 4.0 25 ------- null}
r -t 0.765666666666667 -s 3 -d 4 -p tcp -e 1040 -c 1 -i 22 -a 1 -x {0.0 4.0 14 ------- null}
+ -t 0.765666666666667 -s 4 -d 3 -p ack -e 40 -c 1 -i 41 -a 1 -x {4.0 0.0 14 ------- null}
- -t 0.765666666666667 -s 4 -d 3 -p ack -e 40 -c 1 -i 41 -a 1 -x {4.0 0.0 14 ------- null}
h -t 0.765666666666667 -s 4 -d 3 -p ack -e 40 -c 1 -i 41 -a 1 -x {4.0 0.0 -1 ------- null}
r -t 0.766946666666667 -s 0 -d 3 -p tcp -e 1040 -c 1 -i 40 -a 1 -x {0.0 4.0 26 ------- null}
+ -t 0.766946666666667 -s 3 -d 4 -p tcp -e 1040 -c 1 -i 40 -a 1 -x {0.0 4.0 26 ------- null}
d -t 0.766946666666667 -s 3 -d 4 -p tcp -e 1040 -c 1 -i 40 -a 1 -x {0.0 4.0 26 ------- null}
r -t 0.767493333333334 -s 3 -d 0 -p ack -e 40 -c 1 -i 38 -a 1 -x {4.0 0.0 13 ------- null}
+ -t 0.767493333333334 -s 0 -d 3 -p tcp -e 1040 -c 1 -i 42 -a 1 -x {0.0 4.0 27 ------- null}
- -t 0.767493333333334 -s 0 -d 3 -p tcp -e 1040 -c 1 -i 42 -a 1 -x {0.0 4.0 27 ------- null}
h -t 0.767493333333334 -s 0 -d 3 -p tcp -e 1040 -c 1 -i 42 -a 1 -x {0.0 4.0 -1 ------- null}
+ -t 0.767493333333334 -s 0 -d 3 -p tcp -e 1040 -c 1 -i 43 -a 1 -x {0.0 4.0 28 ------- null}
- -t 0.769533333333334 -s 3 -d 4 -p tcp -e 1040 -c 1 -i 25 -a 1 -x {0.0 4.0 16 ------- null}
h -t 0.769533333333334 -s 3 -d 4 -p tcp -e 1040 -c 1 -i 25 -a 1 -x {0.0 4.0 -1 ------- null}
- -t 0.771653333333334 -s 0 -d 3 -p tcp -e 1040 -c 1 -i 43 -a 1 -x {0.0 4.0 28 ------- null}
h -t 0.771653333333334 -s 0 -d 3 -p tcp -e 1040 -c 1 -i 43 -a 1 -x {0.0 4.0 -1 ------- null}
r -t 0.7762 -s 4 -d 3 -p ack -e 40 -c 1 -i 41 -a 1 -x {4.0 0.0 14 ------- null}
+ -t 0.7762 -s 3 -d 0 -p ack -e 40 -c 1 -i 41 -a 1 -x {4.0 0.0 14 ------- null}
- -t 0.7762 -s 3 -d 0 -p ack -e 40 -c 1 -i 41 -a 1 -x {4.0 0.0 14 ------- null}
h -t 0.7762 -s 3 -d 0 -p ack -e 40 -c 1 -i 41 -a 1 -x {4.0 0.0 -1 ------- null}
r -t 0.776653333333334 -s 0 -d 3 -p tcp -e 1040 -c 1 -i 42 -a 1 -x {0.0 4.0 27 ------- null}
+ -t 0.776653333333334 -s 3 -d 4 -p tcp -e 1040 -c 1 -i 42 -a 1 -x {0.0 4.0 27 ------- null}
r -t 0.779533333333334 -s 3 -d 4 -p tcp -e 1040 -c 1 -i 24 -a 1 -x {0.0 4.0 15 ------- null}
+ -t 0.779533333333334 -s 4 -d 3 -p ack -e 40 -c 1 -i 44 -a 1 -x {4.0 0.0 15 ------- null}
- -t 0.779533333333334 -s 4 -d 3 -p ack -e 40 -c 1 -i 44 -a 1 -x {4.0 0.0 15 ------- null}
h -t 0.779533333333334 -s 4 -d 3 -p ack -e 40 -c 1 -i 44 -a 1 -x {4.0 0.0 -1 ------- null}
r -t 0.780813333333334 -s 0 -d 3 -p tcp -e 1040 -c 1 -i 43 -a 1 -x {0.0 4.0 28 ------- null}
+ -t 0.780813333333334 -s 3 -d 4 -p tcp -e 1040 -c 1 -i 43 -a 1 -x {0.0 4.0 28 ------- null}
d -t 0.780813333333334 -s 3 -d 4 -p tcp -e 1040 -c 1 -i 43 -a 1 -x {0.0 4.0 28 ------- null}
r -t 0.78136 -s 3 -d 0 -p ack -e 40 -c 1 -i 41 -a 1 -x {4.0 0.0 14 ------- null}
+ -t 0.78136 -s 0 -d 3 -p tcp -e 1040 -c 1 -i 45 -a 1 -x {0.0 4.0 29 ------- null}
- -t 0.78136 -s 0 -d 3 -p tcp -e 1040 -c 1 -i 45 -a 1 -x {0.0 4.0 29 ------- null}
h -t 0.78136 -s 0 -d 3 -p tcp -e 1040 -c 1 -i 45 -a 1 -x {0.0 4.0 -1 ------- null}
+ -t 0.78136 -s 0 -d 3 -p tcp -e 1040 -c 1 -i 46 -a 1 -x {0.0 4.0 30 ------- null}
- -t 0.7834 -s 3 -d 4 -p tcp -e 1040 -c 1 -i 27 -a 1 -x {0.0 4.0 17 ------- null}