+ 0.5 0 3 tcp 40 ------- 1 0.0 4.0 0 0
- 0.5 0 3 tcp 40 ------- 1 0.0 4.0 0 0
r 0.50516 0 3 tcp 40 ------- 1 0.0 4.0 0 0
+ 0.50516 3 4 tcp 40 ------- 1 0.0 4.0 0 0
- 0.50516 3 4 tcp 40 ------- 1 0.0 4.0 0 0
r 0.515693 3 4 tcp 40 ------- 1 0.0 4.0 0 0
+ 0.515693 4 3 ack 40 ------- 1 4.0 0.0 0 1
- 0.515693 4 3 ack 40 ------- 1 4.0 0.0 0 1
r 0.526227 4 3 ack 40 ------- 1 4.0 0.0 0 1
+ 0.526227 3 0 ack 40 ------- 1 4.0 0.0 0 1
- 0.526227 3 0 ack 40 ------- 1 4.0 0.0 0 1
r 0.531387 3 0 ack 40 ------- 1 4.0 0.0 0 1
+ 0.531387 0 3 tcp 1040 ------- 1 0.0 4.0 1 2
- 0.531387 0 3 tcp 1040 ------- 1 0.0 4.0 1 2
+ 0.531387 0 3 tcp 1040 ------- 1 0.0 4.0 2 3
- 0.535547 0 3 tcp 1040 ------- 1 0.0 4.0 2 3
r 0.540547 0 3 tcp 1040 ------- 1 0.0 4.0 1 2
+ 0.540547 3 4 tcp 1040 ------- 1 0.0 4.0 1 2
- 0.540547 3 4 tcp 1040 ------- 1 0.0 4.0 1 2
r 0.544707 0 3 tcp 1040 ------- 1 0.0 4.0 2 3
+ 0.544707 3 4 tcp 1040 ------- 1 0.0 4.0 2 3
- 0.554413 3 4 tcp 1040 ------- 1 0.0 4.0 2 3
r 0.564413 3 4 tcp 1040 ------- 1 0.0 4.0 1 2
+ 0.564413 4 3 ack 40 ------- 1 4.0 0.0 1 4
- 0.564413 4 3 ack 40 ------- 1 4.0 0.0 1 4
r 0.574947 4 3 ack 40 ------- 1 4.0 0.0 1 4
+ 0.574947 3 0 ack 40 ------- 1 4.0 0.0 1 4
- 0.574947 3 0 ack 40 ------- 1 4.0 0.0 1 4
r 0.57828 3 4 tcp 1040 ------- 1 0.0 4.0 2 3
+ 0.57828 4 3 ack 40 ------- 1 4.0 0.0 2 5
- 0.57828 4 3 ack 40 ------- 1 4.0 0.0 2 5
r 0.580107 3 0 ack 40 ------- 1 4.0 0.0 1 4
+ 0.580107 0 3 tcp 1040 ------- 1 0.0 4.0 3 6
- 0.580107 0 3 tcp 1040 ------- 1 0.0 4.0 3 6
+ 0.580107 0 3 tcp 1040 ------- 1 0.0 4.0 4 7
- 0.584267 0 3 tcp 1040 ------- 1 0.0 4.0 4 7
r 0.588813 4 3 ack 40 ------- 1 4.0 0.0 2 5
+ 0.588813 3 0 ack 40 ------- 1 4.0 0.0 2 5
- 0.588813 3 0 ack 40 ------- 1 4.0 0.0 2 5
r 0.589267 0 3 tcp 1040 ------- 1 0.0 4.0 3 6
+ 0.589267 3 4 tcp 1040 ------- 1 0.0 4.0 3 6
- 0.589267 3 4 tcp 1040 ------- 1 0.0 4.0 3 6
r 0.593427 0 3 tcp 1040 ------- 1 0.0 4.0 4 7
+ 0.593427 3 4 tcp 1040 ------- 1 0.0 4.0 4 7
r 0.593973 3 0 ack 40 ------- 1 4.0 0.0 2 5
+ 0.593973 0 3 tcp 1040 ------- 1 0.0 4.0 5 8
- 0.593973 0 3 tcp 1040 ------- 1 0.0 4.0 5 8
+ 0.593973 0 3 tcp 1040 ------- 1 0.0 4.0 6 9
- 0.598133 0 3 tcp 1040 ------- 1 0.0 4.0 6 9
- 0.603133 3 4 tcp 1040 ------- 1 0.0 4.0 4 7
r 0.603133 0 3 tcp 1040 ------- 1 0.0 4.0 5 8
+ 0.603133 3 4 tcp 1040 ------- 1 0.0 4.0 5 8
r 0.607293 0 3 tcp 1040 ------- 1 0.0 4.0 6 9
+ 0.607293 3 4 tcp 1040 ------- 1 0.0 4.0 6 9
r 0.613133 3 4 tcp 1040 ------- 1 0.0 4.0 3 6
+ 0.613133 4 3 ack 40 ------- 1 4.0 0.0 3 10
- 0.613133 4 3 ack 40 ------- 1 4.0 0.0 3 10
- 0.617 3 4 tcp 1040 ------- 1 0.0 4.0 5 8
r 0.623667 4 3 ack 40 ------- 1 4.0 0.0 3 10
+ 0.623667 3 0 ack 40 ------- 1 4.0 0.0 3 10
- 0.623667 3 0 ack 40 ------- 1 4.0 0.0 3 10
r 0.627 3 4 tcp 1040 ------- 1 0.0 4.0 4 7
+ 0.627 4 3 ack 40 ------- 1 4.0 0.0 4 11
- 0.627 4 3 ack 40 ------- 1 4.0 0.0 4 11
r 0.628827 3 0 ack 40 ------- 1 4.0 0.0 3 10
+ 0.628827 0 3 tcp 1040 ------- 1 0.0 4.0 7 12
- 0.628827 0 3 tcp 1040 ------- 1 0.0 4.0 7 12
+ 0.628827 0 3 tcp 1040 ------- 1 0.0 4.0 8 13
- 0.630867 3 4 tcp 1040 ------- 1 0.0 4.0 6 9
- 0.632987 0 3 tcp 1040 ------- 1 0.0 4.0 8 13
r 0.637533 4 3 ack 40 ------- 1 4.0 0.0 4 11
+ 0.637533 3 0 ack 40 ------- 1 4.0 0.0 4 11
- 0.637533 3 0 ack 40 ------- 1 4.0 0.0 4 11
r 0.637987 0 3 tcp 1040 ------- 1 0.0 4.0 7 12
+ 0.637987 3 4 tcp 1040 ------- 1 0.0 4.0 7 12
r 0.640867 3 4 tcp 1040 ------- 1 0.0 4.0 5 8
+ 0.640867 4 3 ack 40 ------- 1 4.0 0.0 5 14
- 0.640867 4 3 ack 40 ------- 1 4.0 0.0 5 14
r 0.642147 0 3 tcp 1040 ------- 1 0.0 4.0 8 13
+ 0.642147 3 4 tcp 1040 ------- 1 0.0 4.0 8 13
r 0.642693 3 0 ack 40 ------- 1 4.0 0.0 4 11
+ 0.642693 0 3 tcp 1040 ------- 1 0.0 4.0 9 15
- 0.642693 0 3 tcp 1040 ------- 1 0.0 4.0 9 15
+ 0.642693 0 3 tcp 1040 ------- 1 0.0 4.0 10 16
- 0.644733 3 4 tcp 1040 ------- 1 0.0 4.0 7 12
- 0.646853 0 3 tcp 1040 ------- 1 0.0 4.0 10 16
r 0.6514 4 3 ack 40 ------- 1 4.0 0.0 5 14
+ 0.6514 3 0 ack 40 ------- 1 4.0 0.0 5 14
- 0.6514 3 0 ack 40 ------- 1 4.0 0.0 5 14
r 0.651853 0 3 tcp 1040 ------- 1 0.0 4.0 9 15
+ 0.651853 3 4 tcp 1040 ------- 1 0.0 4.0 9 15
r 0.654733 3 4 tcp 1040 ------- 1 0.0 4.0 6 9
+ 0.654733 4 3 ack 40 ------- 1 4.0 0.0 6 17
- 0.654733 4 3 ack 40 ------- 1 4.0 0.0 6 17
r 0.656013 0 3 tcp 1040 ------- 1 0.0 4.0 10 16
+ 0.656013 3 4 tcp 1040 ------- 1 0.0 4.0 10 16
r 0.65656 3 0 ack 40 ------- 1 4.0 0.0 5 14
+ 0.65656 0 3 tcp 1040 ------- 1 0.0 4.0 11 18
- 0.65656 0 3 tcp 1040 ------- 1 0.0 4.0 11 18
+ 0.65656 0 3 tcp 1040 ------- 1 0.0 4.0 12 19
- 0.6586 3 4 tcp 1040 ------- 1 0.0 4.0 8 13
- 0.66072 0 3 tcp 1040 ------- 1 0.0 4.0 12 19
r 0.665267 4 3 ack 40 ------- 1 4.0 0.0 6 17
+ 0.665267 3 0 ack 40 ------- 1 4.0 0.0 6 17
- 0.665267 3 0 ack 40 ------- 1 4.0 0.0 6 17
r 0.66572 0 3 tcp 1040 ------- 1 0.0 4.0 11 18
+ 0.66572 3 4 tcp 1040 ------- 1 0.0 4.0 11 18
r 0.6686 3 4 tcp 1040 ------- 1 0.0 4.0 7 12
+ 0.6686 4 3 ack 40 ------- 1 4.0 0.0 7 20
- 0.6686 4 3 ack 40 ------- 1 4.0 0.0 7 20
r 0.66988 0 3 tcp 1040 ------- 1 0.0 4.0 12 19
+ 0.66988 3 4 tcp 1040 ------- 1 0.0 4.0 12 19
r 0.670427 3 0 ack 40 ------- 1 4.0 0.0 6 17
+ 0.670427 0 3 tcp 1040 ------- 1 0.0 4.0 13 21
- 0.670427 0 3 tcp 1040 ------- 1 0.0 4.0 13 21
+ 0.670427 0 3 tcp 1040 ------- 1 0.0 4.0 14 22
- 0.672467 3 4 tcp 1040 ------- 1 0.0 4.0 9 15
- 0.674587 0 3 tcp 1040 ------- 1 0.0 4.0 14 22
r 0.679133 4 3 ack 40 ------- 1 4.0 0.0 7 20
+ 0.679133 3 0 ack 40 ------- 1 4.0 0.0 7 20
- 0.679133 3 0 ack 40 ------- 1 4.0 0.0 7 20
r 0.679587 0 3 tcp 1040 ------- 1 0.0 4.0 13 21
+ 0.679587 3 4 tcp 1040 ------- 1 0.0 4.0 13 21
r 0.682467 3 4 tcp 1040 ------- 1 0.0 4.0 8 13
+ 0.682467 4 3 ack 40 ------- 1 4.0 0.0 8 23
- 0.682467 4 3 ack 40 ------- 1 4.0 0.0 8 23
r 0.683747 0 3 tcp 1040 ------- 1 0.0 4.0 14 22
+ 0.683747 3 4 tcp 1040 ------- 1 0.0 4.0 14 22
r 0.684293 3 0 ack 40 ------- 1 4.0 0.0 7 20
+ 0.684293 0 3 tcp 1040 ------- 1 0.0 4.0 15 24
- 0.684293 0 3 tcp 1040 ------- 1 0.0 4.0 15 24
+ 0.684293 0 3 tcp 1040 ------- 1 0.0 4.0 16 25
- 0.686333 3 4 tcp 1040 ------- 1 0.0 4.0 10 16
- 0.688453 0 3 tcp 1040 ------- 1 0.0 4.0 16 25
r 0.693 4 3 ack 40 ------- 1 4.0 0.0 8 23
+ 0.693 3 0 ack 40 ------- 1 4.0 0.0 8 23
- 0.693 3 0 ack 40 ------- 1 4.0 0.0 8 23
r 0.693453 0 3 tcp 1040 ------- 1 0.0 4.0 15 24
+ 0.693453 3 4 tcp 1040 ------- 1 0.0 4.0 15 24
r 0.696333 3 4 tcp 1040 ------- 1 0.0 4.0 9 15
+ 0.696333 4 3 ack 40 ------- 1 4.0 0.0 9 26
- 0.696333 4 3 ack 40 ------- 1 4.0 0.0 9 26
r 0.697613 0 3 tcp 1040 ------- 1 0.0 4.0 16 25
+ 0.697613 3 4 tcp 1040 ------- 1 0.0 4.0 16 25
r 0.69816 3 0 ack 40 ------- 1 4.0 0.0 8 23
+ 0.69816 0 3 tcp 1040 ------- 1 0.0 4.0 17 27
- 0.69816 0 3 tcp 1040 ------- 1 0.0 4.0 17 27
+ 0.69816 0 3 tcp 1040 ------- 1 0.0 4.0 18 28
- 0.7002 3 4 tcp 1040 ------- 1 0.0 4.0 11 18
- 0.70232 0 3 tcp 1040 ------- 1 0.0 4.0 18 28
r 0.706867 4 3 ack 40 ------- 1 4.0 0.0 9 26
+ 0.706867 3 0 ack 40 ------- 1 4.0 0.0 9 26
- 0.706867 3 0 ack 40 ------- 1 4.0 0.0 9 26
r 0.70732 0 3 tcp 1040 ------- 1 0.0 4.0 17 27
+ 0.70732 3 4 tcp 1040 ------- 1 0.0 4.0 17 27
r 0.7102 3 4 tcp 1040 ------- 1 0.0 4.0 10 16
+ 0.7102 4 3 ack 40 ------- 1 4.0 0.0 10 29
- 0.7102 4 3 ack 40 ------- 1 4.0 0.0 10 29
r 0.71148 0 3 tcp 1040 ------- 1 0.0 4.0 18 28
+ 0.71148 3 4 tcp 1040 ------- 1 0.0 4.0 18 28
r 0.712027 3 0 ack 40 ------- 1 4.0 0.0 9 26
+ 0.712027 0 3 tcp 1040 ------- 1 0.0 4.0 19 30
- 0.712027 0 3 tcp 1040 ------- 1 0.0 4.0 19 30
+ 0.712027 0 3 tcp 1040 ------- 1 0.0 4.0 20 31
- 0.714067 3 4 tcp 1040 ------- 1 0.0 4.0 12 19
- 0.716187 0 3 tcp 1040 ------- 1 0.0 4.0 20 31
r 0.720733 4 3 ack 40 ------- 1 4.0 0.0 10 29
+ 0.720733 3 0 ack 40 ------- 1 4.0 0.0 10 29
- 0.720733 3 0 ack 40 ------- 1 4.0 0.0 10 29
r 0.721187 0 3 tcp 1040 ------- 1 0.0 4.0 19 30
+ 0.721187 3 4 tcp 1040 ------- 1 0.0 4.0 19 30
r 0.724067 3 4 tcp 1040 ------- 1 0.0 4.0 11 18
+ 0.724067 4 3 ack 40 ------- 1 4.0 0.0 11 32
- 0.724067 4 3 ack 40 ------- 1 4.0 0.0 11 32
r 0.725347 0 3 tcp 1040 ------- 1 0.0 4.0 20 31
+ 0.725347 3 4 tcp 1040 ------- 1 0.0 4.0 20 31
r 0.725893 3 0 ack 40 ------- 1 4.0 0.0 10 29
+ 0.725893 0 3 tcp 1040 ------- 1 0.0 4.0 21 33
- 0.725893 0 3 tcp 1040 ------- 1 0.0 4.0 21 33
+ 0.725893 0 3 tcp 1040 ------- 1 0.0 4.0 22 34
- 0.727933 3 4 tcp 1040 ------- 1 0.0 4.0 13 21
- 0.730053 0 3 tcp 1040 ------- 1 0.0 4.0 22 34
r 0.7346 4 3 ack 40 ------- 1 4.0 0.0 11 32
+ 0.7346 3 0 ack 40 ------- 1 4.0 0.0 11 32
- 0.7346 3 0 ack 40 ------- 1 4.0 0.0 11 32
r 0.735053 0 3 tcp 1040 ------- 1 0.0 4.0 21 33
+ 0.735053 3 4 tcp 1040 ------- 1 0.0 4.0 21 33
r 0.737933 3 4 tcp 1040 ------- 1 0.0 4.0 12 19
+ 0.737933 4 3 ack 40 ------- 1 4.0 0.0 12 35
- 0.737933 4 3 ack 40 ------- 1 4.0 0.0 12 35
r 0.739213 0 3 tcp 1040 ------- 1 0.0 4.0 22 34
+ 0.739213 3 4 tcp 1040 ------- 1 0.0 4.0 22 34
r 0.73976 3 0 ack 40 ------- 1 4.0 0.0 11 32
+ 0.73976 0 3 tcp 1040 ------- 1 0.0 4.0 23 36
- 0.73976 0 3 tcp 1040 ------- 1 0.0 4.0 23 36
+ 0.73976 0 3 tcp 1040 ------- 1 0.0 4.0 24 37
- 0.7418 3 4 tcp 1040 ------- 1 0.0 4.0 14 22
- 0.74392 0 3 tcp 1040 ------- 1 0.0 4.0 24 37
r 0.748467 4 3 ack 40 ------- 1 4.0 0.0 12 35
+ 0.748467 3 0 ack 40 ------- 1 4.0 0.0 12 35
- 0.748467 3 0 ack 40 ------- 1 4.0 0.0 12 35
r 0.74892 0 3 tcp 1040 ------- 1 0.0 4.0 23 36
+ 0.74892 3 4 tcp 1040 ------- 1 0.0 4.0 23 36
r 0.7518 3 4 tcp 1040 ------- 1 0.0 4.0 13 21
+ 0.7518 4 3 ack 40 ------- 1 4.0 0.0 13 38
- 0.7518 4 3 ack 40 ------- 1 4.0 0.0 13 38
r 0.75308 0 3 tcp 1040 ------- 1 0.0 4.0 24 37
+ 0.75308 3 4 tcp 1040 ------- 1 0.0 4.0 24 37
d 0.75308 3 4 tcp 1040 ------- 1 0.0 4.0 24 37
r 0.753627 3 0 ack 40 ------- 1 4.0 0.0 12 35
+ 0.753627 0 3 tcp 1040 ------- 1 0.0 4.0 25 39
- 0.753627 0 3 tcp 1040 ------- 1 0.0 4.0 25 39
+ 0.753627 0 3 tcp 1040 ------- 1 0.0 4.0 26 40
- 0.755667 3 4 tcp 1040 ------- 1 0.0 4.0 15 24
- 0.757787 0 3 tcp 1040 ------- 1 0.0 4.0 26 40
r 0.762333 4 3 ack 40 ------- 1 4.0 0.0 13 38
+ 0.762333 3 0 ack 40 ------- 1 4.0 0.0 13 38
- 0.762333 3 0 ack 40 ------- 1 4.0 0.0 13 38
r 0.762787 0 3 tcp 1040 ------- 1 0.0 4.0 25 39
+ 0.762787 3 4 tcp 1040 ------- 1 0.0 4.0 25 39
r 0.765667 3 4 tcp 1040 ------- 1 0.0 4.0 14 22
+ 0.765667 4 3 ack 40 ------- 1 4.0 0.0 14 41
- 0.765667 4 3 ack 40 ------- 1 4.0 0.0 14 41
r 0.766947 0 3 tcp 1040 ------- 1 0.0 4.0 26 40
+ 0.766947 3 4 tcp 1040 ------- 1 0.0 4.0 26 40
d 0.766947 3 4 tcp 1040 ------- 1 0.0 4.0 26 40
r 0.767493 3 0 ack 40 ------- 1 4.0 0.0 13 38
+ 0.767493 0 3 tcp 1040 ------- 1 0.0 4.0 27 42
- 0.767493 0 3 tcp 1040 ------- 1 0.0 4.0 27 42
+ 0.767493 0 3 tcp 1040 ------- 1 0.0 4.0 28 43
- 0.769533 3 4 tcp 1040 ------- 1 0.0 4.0 16 25
- 0.771653 0 3 tcp 1040 ------- 1 0.0 4.0 28 43
r 0.7762 4 3 ack 40 ------- 1 4.0 0.0 14 41
+ 0.7762 3 0 ack 40 ------- 1 4.0 0.0 14 41
- 0.7762 3 0 ack 40 ------- 1 4.0 0.0 14 41
r 0.776653 0 3 tcp 1040 ------- 1 0.0 4.0 27 42
+ 0.776653 3 4 tcp 1040 ------- 1 0.0 4.0 27 42
r 0.779533 3 4 tcp 1040 ------- 1 0.0 4.0 15 24
+ 0.779533 4 3 ack 40 ------- 1 4.0 0.0 15 44
- 0.779533 4 3 ack 40 ------- 1 4.0 0.0 15 44
r 0.780813 0 3 tcp 1040 ------- 1 0.0 4.0 28 43
+ 0.780813 3 4 tcp 1040 ------- 1 0.0 4.0 28 43
d 0.780813 3 4 tcp 1040 ------- 1 0.0 4.0 28 43
r 0.78136 3 0 ack 40 ------- 1 4.0 0.0 14 41
+ 0.78136 0 3 tcp 1040 ------- 1 0.0 4.0 29 45
- 0.78136 0 3 tcp 1040 ------- 1 0.0 4.0 29 45
+ 0.78136 0 3 tcp 1040 ------- 1 0.0 4.0 30 46
- 0.7834 3 4 tcp 1040 ------- 1 0.0 4.0 17 27
- 0.78552 0 3 tcp 1040 ------- 1 0.0 4.0 30 46
r 0.790067 4 3 ack 40 ------- 1 4.0 0.0 15 44
+ 0.790067 3 0 ack 40 ------- 1 4.0 0.0 15 44
- 0.790067 3 0 ack 40 ------- 1 4.0 0.0 15 44
r 0.79052 0 3 tcp 1040 ------- 1 0.0 4.0 29 45
+ 0.79052 3 4 tcp 1040 ------- 1 0.0 4.0 29 45
r 0.7934 3 4 tcp 1040 ------- 1 0.0 4.0 16 25
+ 0.7934 4 3 ack 40 ------- 1 4.0 0.0 16 47
- 0.7934 4 3 ack 40 ------- 1 4.0 0.0 16 47
r 0.79468 0 3 tcp 1040 ------- 1 0.0 4.0 30 46
+ 0.79468 3 4 tcp 1040 ------- 1 0.0 4.0 30 46
d 0.79468 3 4 tcp 1040 ------- 1 0.0 4.0 30 46
r 0.795227 3 0 ack 40 ------- 1 4.0 0.0 15 44
+ 0.795227 0 3 tcp 1040 ------- 1 0.0 4.0 31 48
- 0.795227 0 3 tcp 1040 ------- 1 0.0 4.0 31 48
+ 0.795227 0 3 tcp 1040 ------- 1 0.0 4.0 32 49
- 0.797267 3 4 tcp 1040 ------- 1 0.0 4.0 18 28
- 0.799387 0 3 tcp 1040 ------- 1 0.0 4.0 32 49
r 0.803933 4 3 ack 40 ------- 1 4.0 0.0 16 47
+ 0.803933 3 0 ack 40 ------- 1 4.0 0.0 16 47
- 0.803933 3 0 ack 40 ------- 1 4.0 0.0 16 47
r 0.804387 0 3 tcp 1040 ------- 1 0.0 4.0 31 48
+ 0.804387 3 4 tcp 1040 ------- 1 0.0 4.0 31 48
r 0.807267 3 4 tcp 1040 ------- 1 0.0 4.0 17 27
+ 0.807267 4 3 ack 40 ------- 1 4.0 0.0 17 50
- 0.807267 4 3 ack 40 ------- 1 4.0 0.0 17 50
r 0.808547 0 3 tcp 1040 ------- 1 0.0 4.0 32 49
+ 0.808547 3 4 tcp 1040 ------- 1 0.0 4.0 32 49
d 0.808547 3 4 tcp 1040 ------- 1 0.0 4.0 32 49
r 0.809093 3 0 ack 40 ------- 1 4.0 0.0 16 47
+ 0.809093 0 3 tcp 1040 ------- 1 0.0 4.0 33 51
- 0.809093 0 3 tcp 1040 ------- 1 0.0 4.0 33 51
+ 0.809093 0 3 tcp 1040 ------- 1 0.0 4.0 34 52
- 0.811133 3 4 tcp 1040 ------- 1 0.0 4.0 19 30
- 0.813253 0 3 tcp 1040 ------- 1 0.0 4.0 34 52
r 0.8178 4 3 ack 40 ------- 1 4.0 0.0 17 50
+ 0.8178 3 0 ack 40 ------- 1 4.0 0.0 17 50
- 0.8178 3 0 ack 40 ------- 1 4.0 0.0 17 50
r 0.818253 0 3 tcp 1040 ------- 1 0.0 4.0 33 51
+ 0.818253 3 4 tcp 1040 ------- 1 0.0 4.0 33 51
r 0.821133 3 4 tcp 1040 ------- 1 0.0 4.0 18 28
+ 0.821133 4 3 ack 40 ------- 1 4.0 0.0 18 53
- 0.821133 4 3 ack 40 ------- 1 4.0 0.0 18 53
r 0.822413 0 3 tcp 1040 ------- 1 0.0 4.0 34 52
+ 0.822413 3 4 tcp 1040 ------- 1 0.0 4.0 34 52
d 0.822413 3 4 tcp 1040 ------- 1 0.0 4.0 34 52
r 0.82296 3 0 ack 40 ------- 1 4.0 0.0 17 50
+ 0.82296 0 3 tcp 1040 ------- 1 0.0 4.0 35 54
- 0.82296 0 3 tcp 1040 ------- 1 0.0 4.0 35 54
+ 0.82296 0 3 tcp 1040 ------- 1 0.0 4.0 36 55
- 0.825 3 4 tcp 1040 ------- 1 0.0 4.0 20 31
- 0.82712 0 3 tcp 1040 ------- 1 0.0 4.0 36 55
r 0.831667 4 3 ack 40 ------- 1 4.0 0.0 18 53
+ 0.831667 3 0 ack 40 ------- 1 4.0 0.0 18 53
- 0.831667 3 0 ack 40 ------- 1 4.0 0.0 18 53
r 0.83212 0 3 tcp 1040 ------- 1 0.0 4.0 35 54
+ 0.83212 3 4 tcp 1040 ------- 1 0.0 4.0 35 54
r 0.835 3 4 tcp 1040 ------- 1 0.0 4.0 19 30
+ 0.835 4 3 ack 40 ------- 1 4.0 0.0 19 56
- 0.835 4 3 ack 40 ------- 1 4.0 0.0 19 56
r 0.83628 0 3 tcp 1040 ------- 1 0.0 4.0 36 55
+ 0.83628 3 4 tcp 1040 ------- 1 0.0 4.0 36 55
d 0.83628 3 4 tcp 1040 ------- 1 0.0 4.0 36 55
r 0.836827 3 0 ack 40 ------- 1 4.0 0.0 18 53
+ 0.836827 0 3 tcp 1040 ------- 1 0.0 4.0 37 57
- 0.836827 0 3 tcp 1040 ------- 1 0.0 4.0 37 57
+ 0.836827 0 3 tcp 1040 ------- 1 0.0 4.0 38 58
- 0.838867 3 4 tcp 1040 ------- 1 0.0 4.0 21 33
- 0.840987 0 3 tcp 1040 ------- 1 0.0 4.0 38 58
r 0.845533 4 3 ack 40 ------- 1 4.0 0.0 19 56
+ 0.845533 3 0 ack 40 ------- 1 4.0 0.0 19 56
- 0.845533 3 0 ack 40 ------- 1 4.0 0.0 19 56
r 0.845987 0 3 tcp 1040 ------- 1 0.0 4.0 37 57
+ 0.845987 3 4 tcp 1040 ------- 1 0.0 4.0 37 57
r 0.848867 3 4 tcp 1040 ------- 1 0.0 4.0 20 31
+ 0.848867 4 3 ack 40 ------- 1 4.0 0.0 20 59
- 0.848867 4 3 ack 40 ------- 1 4.0 0.0 20 59
r 0.850147 0 3 tcp 1040 ------- 1 0.0 4.0 38 58
+ 0.850147 3 4 tcp 1040 ------- 1 0.0 4.0 38 58
d 0.850147 3 4 tcp 1040 ------- 1 0.0 4.0 38 58
r 0.850693 3 0 ack 40 ------- 1 4.0 0.0 19 56
+ 0.850693 0 3 tcp 1040 ------- 1 0.0 4.0 39 60
- 0.850693 0 3 tcp 1040 ------- 1 0.0 4.0 39 60
- 0.852733 3 4 tcp 1040 ------- 1 0.0 4.0 22 34
r 0.8594 4 3 ack 40 ------- 1 4.0 0.0 20 59
+ 0.8594 3 0 ack 40 ------- 1 4.0 0.0 20 59
- 0.8594 3 0 ack 40 ------- 1 4.0 0.0 20 59
r 0.859853 0 3 tcp 1040 ------- 1 0.0 4.0 39 60
+ 0.859853 3 4 tcp 1040 ------- 1 0.0 4.0 39 60
r 0.862733 3 4 tcp 1040 ------- 1 0.0 4.0 21 33
+ 0.862733 4 3 ack 40 ------- 1 4.0 0.0 21 61
- 0.862733 4 3 ack 40 ------- 1 4.0 0.0 21 61
r 0.86456 3 0 ack 40 ------- 1 4.0 0.0 20 59
+ 0.86456 0 3 tcp 1040 ------- 1 0.0 4.0 40 62
- 0.86456 0 3 tcp 1040 ------- 1 0.0 4.0 40 62
- 0.8666 3 4 tcp 1040 ------- 1 0.0 4.0 23 36
r 0.873267 4 3 ack 40 ------- 1 4.0 0.0 21 61
+ 0.873267 3 0 ack 40 ------- 1 4.0 0.0 21 61
- 0.873267 3 0 ack 40 ------- 1 4.0 0.0 21 61
r 0.87372 0 3 tcp 1040 ------- 1 0.0 4.0 40 62
+ 0.87372 3 4 tcp 1040 ------- 1 0.0 4.0 40 62
r 0.8766 3 4 tcp 1040 ------- 1 0.0 4.0 22 34
+ 0.8766 4 3 ack 40 ------- 1 4.0 0.0 22 63
- 0.8766 4 3 ack 40 ------- 1 4.0 0.0 22 63
r 0.878427 3 0 ack 40 ------- 1 4.0 0.0 21 61
+ 0.878427 0 3 tcp 1040 ------- 1 0.0 4.0 41 64
- 0.878427 0 3 tcp 1040 ------- 1 0.0 4.0 41 64
- 0.880467 3 4 tcp 1040 ------- 1 0.0 4.0 25 39
r 0.887133 4 3 ack 40 ------- 1 4.0 0.0 22 63
+ 0.887133 3 0 ack 40 ------- 1 4.0 0.0 22 63
- 0.887133 3 0 ack 40 ------- 1 4.0 0.0 22 63
r 0.887587 0 3 tcp 1040 ------- 1 0.0 4.0 41 64
+ 0.887587 3 4 tcp 1040 ------- 1 0.0 4.0 41 64
r 0.890467 3 4 tcp 1040 ------- 1 0.0 4.0 23 36
+ 0.890467 4 3 ack 40 ------- 1 4.0 0.0 23 65
- 0.890467 4 3 ack 40 ------- 1 4.0 0.0 23 65
r 0.892293 3 0 ack 40 ------- 1 4.0 0.0 22 63
+ 0.892293 0 3 tcp 1040 ------- 1 0.0 4.0 42 66
- 0.892293 0 3 tcp 1040 ------- 1 0.0 4.0 42 66
- 0.894333 3 4 tcp 1040 ------- 1 0.0 4.0 27 42
r 0.901 4 3 ack 40 ------- 1 4.0 0.0 23 65
+ 0.901 3 0 ack 40 ------- 1 4.0 0.0 23 65
- 0.901 3 0 ack 40 ------- 1 4.0 0.0 23 65
r 0.901453 0 3 tcp 1040 ------- 1 0.0 4.0 42 66
+ 0.901453 3 4 tcp 1040 ------- 1 0.0 4.0 42 66
r 0.904333 3 4 tcp 1040 ------- 1 0.0 4.0 25 39
+ 0.904333 4 3 ack 40 ------- 1 4.0 0.0 23 67
- 0.904333 4 3 ack 40 ------- 1 4.0 0.0 23 67
r 0.90616 3 0 ack 40 ------- 1 4.0 0.0 23 65
+ 0.90616 0 3 tcp 1040 ------- 1 0.0 4.0 43 68
- 0.90616 0 3 tcp 1040 ------- 1 0.0 4.0 43 68
- 0.9082 3 4 tcp 1040 ------- 1 0.0 4.0 29 45
r 0.914867 4 3 ack 40 ------- 1 4.0 0.0 23 67
+ 0.914867 3 0 ack 40 ------- 1 4.0 0.0 23 67
- 0.914867 3 0 ack 40 ------- 1 4.0 0.0 23 67
r 0.91532 0 3 tcp 1040 ------- 1 0.0 4.0 43 68
+ 0.91532 3 4 tcp 1040 ------- 1 0.0 4.0 43 68
r 0.9182 3 4 tcp 1040 ------- 1 0.0 4.0 27 42
+ 0.9182 4 3 ack 40 ------- 1 4.0 0.0 23 69
- 0.9182 4 3 ack 40 ------- 1 4.0 0.0 23 69
r 0.920027 3 0 ack 40 ------- 1 4.0 0.0 23 67
- 0.922067 3 4 tcp 1040 ------- 1 0.0 4.0 31 48
r 0.928733 4 3 ack 40 ------- 1 4.0 0.0 23 69
+ 0.928733 3 0 ack 40 ------- 1 4.0 0.0 23 69
- 0.928733 3 0 ack 40 ------- 1 4.0 0.0 23 69
r 0.932067 3 4 tcp 1040 ------- 1 0.0 4.0 29 45
+ 0.932067 4 3 ack 40 ------- 1 4.0 0.0 23 70
- 0.932067 4 3 ack 40 ------- 1 4.0 0.0 23 70
r 0.933893 3 0 ack 40 ------- 1 4.0 0.0 23 69
- 0.935933 3 4 tcp 1040 ------- 1 0.0 4.0 33 51
r 0.9426 4 3 ack 40 ------- 1 4.0 0.0 23 70
+ 0.9426 3 0 ack 40 ------- 1 4.0 0.0 23 70
- 0.9426 3 0 ack 40 ------- 1 4.0 0.0 23 70
r 0.945933 3 4 tcp 1040 ------- 1 0.0 4.0 31 48
+ 0.945933 4 3 ack 40 ------- 1 4.0 0.0 23 71
- 0.945933 4 3 ack 40 ------- 1 4.0 0.0 23 71
r 0.94776 3 0 ack 40 ------- 1 4.0 0.0 23 70
+ 0.94776 0 3 tcp 1040 ---A--- 1 0.0 4.0 24 72
- 0.94776 0 3 tcp 1040 ---A--- 1 0.0 4.0 24 72
- 0.9498 3 4 tcp 1040 ------- 1 0.0 4.0 35 54
r 0.956467 4 3 ack 40 ------- 1 4.0 0.0 23 71
+ 0.956467 3 0 ack 40 ------- 1 4.0 0.0 23 71
- 0.956467 3 0 ack 40 ------- 1 4.0 0.0 23 71
r 0.95692 0 3 tcp 1040 ---A--- 1 0.0 4.0 24 72
+ 0.95692 3 4 tcp 1040 ---A--- 1 0.0 4.0 24 72
r 0.9598 3 4 tcp 1040 ------- 1 0.0 4.0 33 51
+ 0.9598 4 3 ack 40 ------- 1 4.0 0.0 23 73
- 0.9598 4 3 ack 40 ------- 1 4.0 0.0 23 73
r 0.961627 3 0 ack 40 ------- 1 4.0 0.0 23 71
- 0.963667 3 4 tcp 1040 ------- 1 0.0 4.0 37 57
r 0.970333 4 3 ack 40 ------- 1 4.0 0.0 23 73
+ 0.970333 3 0 ack 40 ------- 1 4.0 0.0 23 73
- 0.970333 3 0 ack 40 ------- 1 4.0 0.0 23 73
r 0.973667 3 4 tcp 1040 ------- 1 0.0 4.0 35 54
+ 0.973667 4 3 ack 40 ------- 1 4.0 0.0 23 74
- 0.973667 4 3 ack 40 ------- 1 4.0 0.0 23 74
r 0.975493 3 0 ack 40 ------- 1 4.0 0.0 23 73
- 0.977533 3 4 tcp 1040 ------- 1 0.0 4.0 39 60
r 0.9842 4 3 ack 40 ------- 1 4.0 0.0 23 74
+ 0.9842 3 0 ack 40 ------- 1 4.0 0.0 23 74
- 0.9842 3 0 ack 40 ------- 1 4.0 0.0 23 74
r 0.987533 3 4 tcp 1040 ------- 1 0.0 4.0 37 57
+ 0.987533 4 3 ack 40 ------- 1 4.0 0.0 23 75
- 0.987533 4 3 ack 40 ------- 1 4.0 0.0 23 75
r 0.98936 3 0 ack 40 ------- 1 4.0 0.0 23 74
- 0.9914 3 4 tcp 1040 ------- 1 0.0 4.0 40 62
r 0.998067 4 3 ack 40 ------- 1 4.0 0.0 23 75
+ 0.998067 3 0 ack 40 ------- 1 4.0 0.0 23 75
- 0.998067 3 0 ack 40 ------- 1 4.0 0.0 23 75
+ 1 1 3 cbr 200 ------- 2 1.0 4.1 0 76
- 1 1 3 cbr 200 ------- 2 1.0 4.1 0 76
r 1.0014 3 4 tcp 1040 ------- 1 0.0 4.0 39 60
+ 1.0014 4 3 ack 40 ------- 1 4.0 0.0 23 77
- 1.0014 4 3 ack 40 ------- 1 4.0 0.0 23 77
+ 1.0032 1 3 cbr 200 ------- 2 1.0 4.1 1 78
- 1.0032 1 3 cbr 200 ------- 2 1.0 4.1 1 78
r 1.003227 3 0 ack 40 ------- 1 4.0 0.0 23 75
- 1.005267 3 4 tcp 1040 ------- 1 0.0 4.0 41 64
r 1.0058 1 3 cbr 200 ------- 2 1.0 4.1 0 76
+ 1.0058 3 4 cbr 200 ------- 2 1.0 4.1 0 76
+ 1.0064 1 3 cbr 200 ------- 2 1.0 4.1 2 79
- 1.0064 1 3 cbr 200 ------- 2 1.0 4.1 2 79
r 1.009 1 3 cbr 200 ------- 2 1.0 4.1 1 78
+ 1.009 3 4 cbr 200 ------- 2 1.0 4.1 1 78
+ 1.0096 1 3 cbr 200 ------- 2 1.0 4.1 3 80
- 1.0096 1 3 cbr 200 ------- 2 1.0 4.1 3 80
r 1.011933 4 3 ack 40 ------- 1 4.0 0.0 23 77
+ 1.011933 3 0 ack 40 ------- 1 4.0 0.0 23 77
- 1.011933 3 0 ack 40 ------- 1 4.0 0.0 23 77
r 1.0122 1 3 cbr 200 ------- 2 1.0 4.1 2 79
+ 1.0122 3 4 cbr 200 ------- 2 1.0 4.1 2 79
+ 1.0128 1 3 cbr 200 ------- 2 1.0 4.1 4 81
- 1.0128 1 3 cbr 200 ------- 2 1.0 4.1 4 81
r 1.015267 3 4 tcp 1040 ------- 1 0.0 4.0 40 62
+ 1.015267 4 3 ack 40 ------- 1 4.0 0.0 23 82
- 1.015267 4 3 ack 40 ------- 1 4.0 0.0 23 82
r 1.0154 1 3 cbr 200 ------- 2 1.0 4.1 3 80
+ 1.0154 3 4 cbr 200 ------- 2 1.0 4.1 3 80
+ 1.016 1 3 cbr 200 ------- 2 1.0 4.1 5 83
- 1.016 1 3 cbr 200 ------- 2 1.0 4.1 5 83
r 1.017093 3 0 ack 40 ------- 1 4.0 0.0 23 77
r 1.0186 1 3 cbr 200 ------- 2 1.0 4.1 4 81
+ 1.0186 3 4 cbr 200 ------- 2 1.0 4.1 4 81
- 1.019133 3 4 tcp 1040 ------- 1 0.0 4.0 42 66
+ 1.0192 1 3 cbr 200 ------- 2 1.0 4.1 6 84
- 1.0192 1 3 cbr 200 ------- 2 1.0 4.1 6 84
r 1.0218 1 3 cbr 200 ------- 2 1.0 4.1 5 83
+ 1.0218 3 4 cbr 200 ------- 2 1.0 4.1 5 83
+ 1.0224 1 3 cbr 200 ------- 2 1.0 4.1 7 85
- 1.0224 1 3 cbr 200 ------- 2 1.0 4.1 7 85
r 1.025 1 3 cbr 200 ------- 2 1.0 4.1 6 84
+ 1.025 3 4 cbr 200 ------- 2 1.0 4.1 6 84
+ 1.0256 1 3 cbr 200 ------- 2 1.0 4.1 8 86
- 1.0256 1 3 cbr 200 ------- 2 1.0 4.1 8 86
r 1.0258 4 3 ack 40 ------- 1 4.0 0.0 23 82
+ 1.0258 3 0 ack 40 ------- 1 4.0 0.0 23 82
- 1.0258 3 0 ack 40 ------- 1 4.0 0.0 23 82
r 1.0282 1 3 cbr 200 ------- 2 1.0 4.1 7 85
+ 1.0282 3 4 cbr 200 ------- 2 1.0 4.1 7 85
d 1.0282 3 4 cbr 200 ------- 2 1.0 4.1 7 85
+ 1.0288 1 3 cbr 200 ------- 2 1.0 4.1 9 87
- 1.0288 1 3 cbr 200 ------- 2 1.0 4.1 9 87
r 1.029133 3 4 tcp 1040 ------- 1 0.0 4.0 41 64
+ 1.029133 4 3 ack 40 ------- 1 4.0 0.0 23 88
- 1.029133 4 3 ack 40 ------- 1 4.0 0.0 23 88
r 1.03096 3 0 ack 40 ------- 1 4.0 0.0 23 82
r 1.0314 1 3 cbr 200 ------- 2 1.0 4.1 8 86
+ 1.0314 3 4 cbr 200 ------- 2 1.0 4.1 8 86
d 1.0314 3 4 cbr 200 ------- 2 1.0 4.1 8 86
+ 1.032 1 3 cbr 200 ------- 2 1.0 4.1 10 89
- 1.032 1 3 cbr 200 ------- 2 1.0 4.1 10 89
- 1.033 3 4 tcp 1040 ------- 1 0.0 4.0 43 68
r 1.0346 1 3 cbr 200 ------- 2 1.0 4.1 9 87
+ 1.0346 3 4 cbr 200 ------- 2 1.0 4.1 9 87
+ 1.0352 1 3 cbr 200 ------- 2 1.0 4.1 11 90
- 1.0352 1 3 cbr 200 ------- 2 1.0 4.1 11 90
r 1.0378 1 3 cbr 200 ------- 2 1.0 4.1 10 89
+ 1.0378 3 4 cbr 200 ------- 2 1.0 4.1 10 89
d 1.0378 3 4 cbr 200 ------- 2 1.0 4.1 10 89
+ 1.0384 1 3 cbr 200 ------- 2 1.0 4.1 12 91
- 1.0384 1 3 cbr 200 ------- 2 1.0 4.1 12 91
r 1.039667 4 3 ack 40 ------- 1 4.0 0.0 23 88
+ 1.039667 3 0 ack 40 ------- 1 4.0 0.0 23 88
- 1.039667 3 0 ack 40 ------- 1 4.0 0.0 23 88
r 1.041 1 3 cbr 200 ------- 2 1.0 4.1 11 90
+ 1.041 3 4 cbr 200 ------- 2 1.0 4.1 11 90
d 1.041 3 4 cbr 200 ------- 2 1.0 4.1 11 90
+ 1.0416 1 3 cbr 200 ------- 2 1.0 4.1 13 92
- 1.0416 1 3 cbr 200 ------- 2 1.0 4.1 13 92
r 1.043 3 4 tcp 1040 ------- 1 0.0 4.0 42 66
+ 1.043 4 3 ack 40 ------- 1 4.0 0.0 23 93
- 1.043 4 3 ack 40 ------- 1 4.0 0.0 23 93
r 1.0442 1 3 cbr 200 ------- 2 1.0 4.1 12 91
+ 1.0442 3 4 cbr 200 ------- 2 1.0 4.1 12 91
d 1.0442 3 4 cbr 200 ------- 2 1.0 4.1 12 91
+ 1.0448 1 3 cbr 200 ------- 2 1.0 4.1 14 94
- 1.0448 1 3 cbr 200 ------- 2 1.0 4.1 14 94
r 1.044827 3 0 ack 40 ------- 1 4.0 0.0 23 88
- 1.046867 3 4 tcp 1040 ---A--- 1 0.0 4.0 24 72
r 1.0474 1 3 cbr 200 ------- 2 1.0 4.1 13 92
+ 1.0474 3 4 cbr 200 ------- 2 1.0 4.1 13 92
+ 1.048 1 3 cbr 200 ------- 2 1.0 4.1 15 95
- 1.048 1 3 cbr 200 ------- 2 1.0 4.1 15 95
r 1.0506 1 3 cbr 200 ------- 2 1.0 4.1 14 94
+ 1.0506 3 4 cbr 200 ------- 2 1.0 4.1 14 94
d 1.0506 3 4 cbr 200 ------- 2 1.0 4.1 14 94
+ 1.0512 1 3 cbr 200 ------- 2 1.0 4.1 16 96
- 1.0512 1 3 cbr 200 ------- 2 1.0 4.1 16 96
r 1.053533 4 3 ack 40 ------- 1 4.0 0.0 23 93
+ 1.053533 3 0 ack 40 ------- 1 4.0 0.0 23 93
- 1.053533 3 0 ack 40 ------- 1 4.0 0.0 23 93
r 1.0538 1 3 cbr 200 ------- 2 1.0 4.1 15 95
+ 1.0538 3 4 cbr 200 ------- 2 1.0 4.1 15 95
d 1.0538 3 4 cbr 200 ------- 2 1.0 4.1 15 95
+ 1.0544 1 3 cbr 200 ------- 2 1.0 4.1 17 97
- 1.0544 1 3 cbr 200 ------- 2 1.0 4.1 17 97
r 1.056867 3 4 tcp 1040 ------- 1 0.0 4.0 43 68
+ 1.056867 4 3 ack 40 ------- 1 4.0 0.0 23 98
- 1.056867 4 3 ack 40 ------- 1 4.0 0.0 23 98
r 1.057 1 3 cbr 200 ------- 2 1.0 4.1 16 96
+ 1.057 3 4 cbr 200 ------- 2 1.0 4.1 16 96
d 1.057 3 4 cbr 200 ------- 2 1.0 4.1 16 96
+ 1.0576 1 3 cbr 200 ------- 2 1.0 4.1 18 99
- 1.0576 1 3 cbr 200 ------- 2 1.0 4.1 18 99
r 1.058693 3 0 ack 40 ------- 1 4.0 0.0 23 93
r 1.0602 1 3 cbr 200 ------- 2 1.0 4.1 17 97
+ 1.0602 3 4 cbr 200 ------- 2 1.0 4.1 17 97
d 1.0602 3 4 cbr 200 ------- 2 1.0 4.1 17 97
- 1.060733 3 4 cbr 200 ------- 2 1.0 4.1 0 76
+ 1.0608 1 3 cbr 200 ------- 2 1.0 4.1 19 100
- 1.0608 1 3 cbr 200 ------- 2 1.0 4.1 19 100
- 1.0634 3 4 cbr 200 ------- 2 1.0 4.1 1 78
r 1.0634 1 3 cbr 200 ------- 2 1.0 4.1 18 99
+ 1.0634 3 4 cbr 200 ------- 2 1.0 4.1 18 99
+ 1.064 1 3 cbr 200 ------- 2 1.0 4.1 20 101
- 1.064 1 3 cbr 200 ------- 2 1.0 4.1 20 101
- 1.066067 3 4 cbr 200 ------- 2 1.0 4.1 2 79
r 1.0666 1 3 cbr 200 ------- 2 1.0 4.1 19 100
+ 1.0666 3 4 cbr 200 ------- 2 1.0 4.1 19 100
+ 1.0672 1 3 cbr 200 ------- 2 1.0 4.1 21 102
- 1.0672 1 3 cbr 200 ------- 2 1.0 4.1 21 102
r 1.0674 4 3 ack 40 ------- 1 4.0 0.0 23 98
+ 1.0674 3 0 ack 40 ------- 1 4.0 0.0 23 98
- 1.0674 3 0 ack 40 ------- 1 4.0 0.0 23 98
- 1.068733 3 4 cbr 200 ------- 2 1.0 4.1 3 80
r 1.0698 1 3 cbr 200 ------- 2 1.0 4.1 20 101
+ 1.0698 3 4 cbr 200 ------- 2 1.0 4.1 20 101
+ 1.0704 1 3 cbr 200 ------- 2 1.0 4.1 22 103
- 1.0704 1 3 cbr 200 ------- 2 1.0 4.1 22 103
r 1.070733 3 4 tcp 1040 ---A--- 1 0.0 4.0 24 72
+ 1.070733 4 3 ack 40 ------- 1 4.0 0.0 25 104
- 1.070733 4 3 ack 40 ------- 1 4.0 0.0 25 104
- 1.0714 3 4 cbr 200 ------- 2 1.0 4.1 4 81
r 1.07256 3 0 ack 40 ------- 1 4.0 0.0 23 98
r 1.073 1 3 cbr 200 ------- 2 1.0 4.1 21 102
+ 1.073 3 4 cbr 200 ------- 2 1.0 4.1 21 102
r 1.0734 3 4 cbr 200 ------- 2 1.0 4.1 0 76
+ 1.0736 1 3 cbr 200 ------- 2 1.0 4.1 23 105
- 1.0736 1 3 cbr 200 ------- 2 1.0 4.1 23 105
- 1.074067 3 4 cbr 200 ------- 2 1.0 4.1 5 83
r 1.076067 3 4 cbr 200 ------- 2 1.0 4.1 1 78
r 1.0762 1 3 cbr 200 ------- 2 1.0 4.1 22 103
+ 1.0762 3 4 cbr 200 ------- 2 1.0 4.1 22 103
- 1.076733 3 4 cbr 200 ------- 2 1.0 4.1 6 84
+ 1.0768 1 3 cbr 200 ------- 2 1.0 4.1 24 106
- 1.0768 1 3 cbr 200 ------- 2 1.0 4.1 24 106
r 1.078733 3 4 cbr 200 ------- 2 1.0 4.1 2 79
- 1.0794 3 4 cbr 200 ------- 2 1.0 4.1 9 87
r 1.0794 1 3 cbr 200 ------- 2 1.0 4.1 23 105
+ 1.0794 3 4 cbr 200 ------- 2 1.0 4.1 23 105
+ 1.08 1 3 cbr 200 ------- 2 1.0 4.1 25 107
- 1.08 1 3 cbr 200 ------- 2 1.0 4.1 25 107
r 1.081267 4 3 ack 40 ------- 1 4.0 0.0 25 104
+ 1.081267 3 0 ack 40 ------- 1 4.0 0.0 25 104
- 1.081267 3 0 ack 40 ------- 1 4.0 0.0 25 104
r 1.0814 3 4 cbr 200 ------- 2 1.0 4.1 3 80
- 1.082067 3 4 cbr 200 ------- 2 1.0 4.1 13 92
r 1.0826 1 3 cbr 200 ------- 2 1.0 4.1 24 106
+ 1.0826 3 4 cbr 200 ------- 2 1.0 4.1 24 106
+ 1.0832 1 3 cbr 200 ------- 2 1.0 4.1 26 108
- 1.0832 1 3 cbr 200 ------- 2 1.0 4.1 26 108
r 1.084067 3 4 cbr 200 ------- 2 1.0 4.1 4 81
- 1.084733 3 4 cbr 200 ------- 2 1.0 4.1 18 99
r 1.0858 1 3 cbr 200 ------- 2 1.0 4.1 25 107
+ 1.0858 3 4 cbr 200 ------- 2 1.0 4.1 25 107
+ 1.0864 1 3 cbr 200 ------- 2 1.0 4.1 27 109
- 1.0864 1 3 cbr 200 ------- 2 1.0 4.1 27 109
r 1.086427 3 0 ack 40 ------- 1 4.0 0.0 25 104
+ 1.086427 0 3 tcp 1040 ------- 1 0.0 4.0 26 110
- 1.086427 0 3 tcp 1040 ------- 1 0.0 4.0 26 110
+ 1.086427 0 3 tcp 1040 ------- 1 0.0 4.0 27 111
r 1.086733 3 4 cbr 200 ------- 2 1.0 4.1 5 83
- 1.0874 3 4 cbr 200 ------- 2 1.0 4.1 19 100
r 1.089 1 3 cbr 200 ------- 2 1.0 4.1 26 108
+ 1.089 3 4 cbr 200 ------- 2 1.0 4.1 26 108
r 1.0894 3 4 cbr 200 ------- 2 1.0 4.1 6 84
+ 1.0896 1 3 cbr 200 ------- 2 1.0 4.1 28 112
- 1.0896 1 3 cbr 200 ------- 2 1.0 4.1 28 112
- 1.090067 3 4 cbr 200 ------- 2 1.0 4.1 20 101
- 1.090587 0 3 tcp 1040 ------- 1 0.0 4.0 27 111
r 1.092067 3 4 cbr 200 ------- 2 1.0 4.1 9 87
r 1.0922 1 3 cbr 200 ------- 2 1.0 4.1 27 109
+ 1.0922 3 4 cbr 200 ------- 2 1.0 4.1 27 109
- 1.092733 3 4 cbr 200 ------- 2 1.0 4.1 21 102
+ 1.0928 1 3 cbr 200 ------- 2 1.0 4.1 29 113
- 1.0928 1 3 cbr 200 ------- 2 1.0 4.1 29 113
r 1.094733 3 4 cbr 200 ------- 2 1.0 4.1 13 92
- 1.0954 3 4 cbr 200 ------- 2 1.0 4.1 22 103
r 1.0954 1 3 cbr 200 ------- 2 1.0 4.1 28 112
+ 1.0954 3 4 cbr 200 ------- 2 1.0 4.1 28 112
r 1.095587 0 3 tcp 1040 ------- 1 0.0 4.0 26 110
+ 1.095587 3 4 tcp 1040 ------- 1 0.0 4.0 26 110
+ 1.096 1 3 cbr 200 ------- 2 1.0 4.1 30 114
- 1.096 1 3 cbr 200 ------- 2 1.0 4.1 30 114
r 1.0974 3 4 cbr 200 ------- 2 1.0 4.1 18 99
- 1.098067 3 4 cbr 200 ------- 2 1.0 4.1 23 105
r 1.0986 1 3 cbr 200 ------- 2 1.0 4.1 29 113
+ 1.0986 3 4 cbr 200 ------- 2 1.0 4.1 29 113
+ 1.0992 1 3 cbr 200 ------- 2 1.0 4.1 31 115
- 1.0992 1 3 cbr 200 ------- 2 1.0 4.1 31 115
r 1.099747 0 3 tcp 1040 ------- 1 0.0 4.0 27 111
+ 1.099747 3 4 tcp 1040 ------- 1 0.0 4.0 27 111
r 1.100067 3 4 cbr 200 ------- 2 1.0 4.1 19 100
- 1.100733 3 4 cbr 200 ------- 2 1.0 4.1 24 106
r 1.1018 1 3 cbr 200 ------- 2 1.0 4.1 30 114