+ 0.5 0 3 tcp 40 ------- 1 0.0 4.1 0 0
- 0.5 0 3 tcp 40 ------- 1 0.0 4.1 0 0
r 0.50516 0 3 tcp 40 ------- 1 0.0 4.1 0 0
+ 0.50516 3 4 tcp 40 ------- 1 0.0 4.1 0 0
- 0.50516 3 4 tcp 40 ------- 1 0.0 4.1 0 0
r 0.515693 3 4 tcp 40 ------- 1 0.0 4.1 0 0
+ 0.515693 4 3 ack 40 ------- 1 4.1 0.0 0 1
- 0.515693 4 3 ack 40 ------- 1 4.1 0.0 0 1
r 0.526227 4 3 ack 40 ------- 1 4.1 0.0 0 1
+ 0.526227 3 0 ack 40 ------- 1 4.1 0.0 0 1
- 0.526227 3 0 ack 40 ------- 1 4.1 0.0 0 1
r 0.531387 3 0 ack 40 ------- 1 4.1 0.0 0 1
+ 0.531387 0 3 tcp 1040 ------- 1 0.0 4.1 1 2
- 0.531387 0 3 tcp 1040 ------- 1 0.0 4.1 1 2
+ 0.531387 0 3 tcp 1040 ------- 1 0.0 4.1 2 3
- 0.535547 0 3 tcp 1040 ------- 1 0.0 4.1 2 3
r 0.540547 0 3 tcp 1040 ------- 1 0.0 4.1 1 2
+ 0.540547 3 4 tcp 1040 ------- 1 0.0 4.1 1 2
- 0.540547 3 4 tcp 1040 ------- 1 0.0 4.1 1 2
r 0.544707 0 3 tcp 1040 ------- 1 0.0 4.1 2 3
+ 0.544707 3 4 tcp 1040 ------- 1 0.0 4.1 2 3
- 0.554413 3 4 tcp 1040 ------- 1 0.0 4.1 2 3
r 0.564413 3 4 tcp 1040 ------- 1 0.0 4.1 1 2
+ 0.564413 4 3 ack 40 ------- 1 4.1 0.0 1 4
- 0.564413 4 3 ack 40 ------- 1 4.1 0.0 1 4
r 0.574947 4 3 ack 40 ------- 1 4.1 0.0 1 4
+ 0.574947 3 0 ack 40 ------- 1 4.1 0.0 1 4
- 0.574947 3 0 ack 40 ------- 1 4.1 0.0 1 4
r 0.57828 3 4 tcp 1040 ------- 1 0.0 4.1 2 3
+ 0.57828 4 3 ack 40 ------- 1 4.1 0.0 2 5
- 0.57828 4 3 ack 40 ------- 1 4.1 0.0 2 5
r 0.580107 3 0 ack 40 ------- 1 4.1 0.0 1 4
+ 0.580107 0 3 tcp 1040 ------- 1 0.0 4.1 3 6
- 0.580107 0 3 tcp 1040 ------- 1 0.0 4.1 3 6
+ 0.580107 0 3 tcp 1040 ------- 1 0.0 4.1 4 7
- 0.584267 0 3 tcp 1040 ------- 1 0.0 4.1 4 7
r 0.588813 4 3 ack 40 ------- 1 4.1 0.0 2 5
+ 0.588813 3 0 ack 40 ------- 1 4.1 0.0 2 5
- 0.588813 3 0 ack 40 ------- 1 4.1 0.0 2 5
r 0.589267 0 3 tcp 1040 ------- 1 0.0 4.1 3 6
+ 0.589267 3 4 tcp 1040 ------- 1 0.0 4.1 3 6
- 0.589267 3 4 tcp 1040 ------- 1 0.0 4.1 3 6
r 0.593427 0 3 tcp 1040 ------- 1 0.0 4.1 4 7
+ 0.593427 3 4 tcp 1040 ------- 1 0.0 4.1 4 7
r 0.593973 3 0 ack 40 ------- 1 4.1 0.0 2 5
+ 0.593973 0 3 tcp 1040 ------- 1 0.0 4.1 5 8
- 0.593973 0 3 tcp 1040 ------- 1 0.0 4.1 5 8
+ 0.593973 0 3 tcp 1040 ------- 1 0.0 4.1 6 9
- 0.598133 0 3 tcp 1040 ------- 1 0.0 4.1 6 9
- 0.603133 3 4 tcp 1040 ------- 1 0.0 4.1 4 7
r 0.603133 0 3 tcp 1040 ------- 1 0.0 4.1 5 8
+ 0.603133 3 4 tcp 1040 ------- 1 0.0 4.1 5 8
r 0.607293 0 3 tcp 1040 ------- 1 0.0 4.1 6 9
+ 0.607293 3 4 tcp 1040 ------- 1 0.0 4.1 6 9
r 0.613133 3 4 tcp 1040 ------- 1 0.0 4.1 3 6
+ 0.613133 4 3 ack 40 ------- 1 4.1 0.0 3 10
- 0.613133 4 3 ack 40 ------- 1 4.1 0.0 3 10
- 0.617 3 4 tcp 1040 ------- 1 0.0 4.1 5 8
r 0.623667 4 3 ack 40 ------- 1 4.1 0.0 3 10
+ 0.623667 3 0 ack 40 ------- 1 4.1 0.0 3 10
- 0.623667 3 0 ack 40 ------- 1 4.1 0.0 3 10
r 0.627 3 4 tcp 1040 ------- 1 0.0 4.1 4 7
+ 0.627 4 3 ack 40 ------- 1 4.1 0.0 4 11
- 0.627 4 3 ack 40 ------- 1 4.1 0.0 4 11
r 0.628827 3 0 ack 40 ------- 1 4.1 0.0 3 10
+ 0.628827 0 3 tcp 1040 ------- 1 0.0 4.1 7 12
- 0.628827 0 3 tcp 1040 ------- 1 0.0 4.1 7 12
+ 0.628827 0 3 tcp 1040 ------- 1 0.0 4.1 8 13
- 0.630867 3 4 tcp 1040 ------- 1 0.0 4.1 6 9
- 0.632987 0 3 tcp 1040 ------- 1 0.0 4.1 8 13
r 0.637533 4 3 ack 40 ------- 1 4.1 0.0 4 11
+ 0.637533 3 0 ack 40 ------- 1 4.1 0.0 4 11
- 0.637533 3 0 ack 40 ------- 1 4.1 0.0 4 11
r 0.637987 0 3 tcp 1040 ------- 1 0.0 4.1 7 12
+ 0.637987 3 4 tcp 1040 ------- 1 0.0 4.1 7 12
r 0.640867 3 4 tcp 1040 ------- 1 0.0 4.1 5 8
+ 0.640867 4 3 ack 40 ------- 1 4.1 0.0 5 14
- 0.640867 4 3 ack 40 ------- 1 4.1 0.0 5 14
r 0.642147 0 3 tcp 1040 ------- 1 0.0 4.1 8 13
+ 0.642147 3 4 tcp 1040 ------- 1 0.0 4.1 8 13
r 0.642693 3 0 ack 40 ------- 1 4.1 0.0 4 11
+ 0.642693 0 3 tcp 1040 ------- 1 0.0 4.1 9 15
- 0.642693 0 3 tcp 1040 ------- 1 0.0 4.1 9 15
+ 0.642693 0 3 tcp 1040 ------- 1 0.0 4.1 10 16
- 0.644733 3 4 tcp 1040 ------- 1 0.0 4.1 7 12
- 0.646853 0 3 tcp 1040 ------- 1 0.0 4.1 10 16
r 0.6514 4 3 ack 40 ------- 1 4.1 0.0 5 14
+ 0.6514 3 0 ack 40 ------- 1 4.1 0.0 5 14
- 0.6514 3 0 ack 40 ------- 1 4.1 0.0 5 14
r 0.651853 0 3 tcp 1040 ------- 1 0.0 4.1 9 15
+ 0.651853 3 4 tcp 1040 ------- 1 0.0 4.1 9 15
r 0.654733 3 4 tcp 1040 ------- 1 0.0 4.1 6 9
+ 0.654733 4 3 ack 40 ------- 1 4.1 0.0 6 17
- 0.654733 4 3 ack 40 ------- 1 4.1 0.0 6 17
r 0.656013 0 3 tcp 1040 ------- 1 0.0 4.1 10 16
+ 0.656013 3 4 tcp 1040 ------- 1 0.0 4.1 10 16
r 0.65656 3 0 ack 40 ------- 1 4.1 0.0 5 14
+ 0.65656 0 3 tcp 1040 ------- 1 0.0 4.1 11 18
- 0.65656 0 3 tcp 1040 ------- 1 0.0 4.1 11 18
+ 0.65656 0 3 tcp 1040 ------- 1 0.0 4.1 12 19
- 0.6586 3 4 tcp 1040 ------- 1 0.0 4.1 8 13
- 0.66072 0 3 tcp 1040 ------- 1 0.0 4.1 12 19
r 0.665267 4 3 ack 40 ------- 1 4.1 0.0 6 17
+ 0.665267 3 0 ack 40 ------- 1 4.1 0.0 6 17
- 0.665267 3 0 ack 40 ------- 1 4.1 0.0 6 17
r 0.66572 0 3 tcp 1040 ------- 1 0.0 4.1 11 18
+ 0.66572 3 4 tcp 1040 ------- 1 0.0 4.1 11 18
r 0.6686 3 4 tcp 1040 ------- 1 0.0 4.1 7 12
+ 0.6686 4 3 ack 40 ------- 1 4.1 0.0 7 20
- 0.6686 4 3 ack 40 ------- 1 4.1 0.0 7 20
r 0.66988 0 3 tcp 1040 ------- 1 0.0 4.1 12 19
+ 0.66988 3 4 tcp 1040 ------- 1 0.0 4.1 12 19
r 0.670427 3 0 ack 40 ------- 1 4.1 0.0 6 17
+ 0.670427 0 3 tcp 1040 ------- 1 0.0 4.1 13 21
- 0.670427 0 3 tcp 1040 ------- 1 0.0 4.1 13 21
+ 0.670427 0 3 tcp 1040 ------- 1 0.0 4.1 14 22
- 0.672467 3 4 tcp 1040 ------- 1 0.0 4.1 9 15
- 0.674587 0 3 tcp 1040 ------- 1 0.0 4.1 14 22
r 0.679133 4 3 ack 40 ------- 1 4.1 0.0 7 20
+ 0.679133 3 0 ack 40 ------- 1 4.1 0.0 7 20
- 0.679133 3 0 ack 40 ------- 1 4.1 0.0 7 20
r 0.679587 0 3 tcp 1040 ------- 1 0.0 4.1 13 21
+ 0.679587 3 4 tcp 1040 ------- 1 0.0 4.1 13 21
r 0.682467 3 4 tcp 1040 ------- 1 0.0 4.1 8 13
+ 0.682467 4 3 ack 40 ------- 1 4.1 0.0 8 23
- 0.682467 4 3 ack 40 ------- 1 4.1 0.0 8 23
r 0.683747 0 3 tcp 1040 ------- 1 0.0 4.1 14 22
+ 0.683747 3 4 tcp 1040 ------- 1 0.0 4.1 14 22
r 0.684293 3 0 ack 40 ------- 1 4.1 0.0 7 20
+ 0.684293 0 3 tcp 1040 ------- 1 0.0 4.1 15 24
- 0.684293 0 3 tcp 1040 ------- 1 0.0 4.1 15 24
+ 0.684293 0 3 tcp 1040 ------- 1 0.0 4.1 16 25
- 0.686333 3 4 tcp 1040 ------- 1 0.0 4.1 10 16
- 0.688453 0 3 tcp 1040 ------- 1 0.0 4.1 16 25
r 0.693 4 3 ack 40 ------- 1 4.1 0.0 8 23
+ 0.693 3 0 ack 40 ------- 1 4.1 0.0 8 23
- 0.693 3 0 ack 40 ------- 1 4.1 0.0 8 23
r 0.693453 0 3 tcp 1040 ------- 1 0.0 4.1 15 24
+ 0.693453 3 4 tcp 1040 ------- 1 0.0 4.1 15 24
r 0.696333 3 4 tcp 1040 ------- 1 0.0 4.1 9 15
+ 0.696333 4 3 ack 40 ------- 1 4.1 0.0 9 26
- 0.696333 4 3 ack 40 ------- 1 4.1 0.0 9 26
r 0.697613 0 3 tcp 1040 ------- 1 0.0 4.1 16 25
+ 0.697613 3 4 tcp 1040 ------- 1 0.0 4.1 16 25
r 0.69816 3 0 ack 40 ------- 1 4.1 0.0 8 23
+ 0.69816 0 3 tcp 1040 ------- 1 0.0 4.1 17 27
- 0.69816 0 3 tcp 1040 ------- 1 0.0 4.1 17 27
+ 0.69816 0 3 tcp 1040 ------- 1 0.0 4.1 18 28
- 0.7002 3 4 tcp 1040 ------- 1 0.0 4.1 11 18
- 0.70232 0 3 tcp 1040 ------- 1 0.0 4.1 18 28
r 0.706867 4 3 ack 40 ------- 1 4.1 0.0 9 26
+ 0.706867 3 0 ack 40 ------- 1 4.1 0.0 9 26
- 0.706867 3 0 ack 40 ------- 1 4.1 0.0 9 26
r 0.70732 0 3 tcp 1040 ------- 1 0.0 4.1 17 27
+ 0.70732 3 4 tcp 1040 ------- 1 0.0 4.1 17 27
r 0.7102 3 4 tcp 1040 ------- 1 0.0 4.1 10 16
+ 0.7102 4 3 ack 40 ------- 1 4.1 0.0 10 29
- 0.7102 4 3 ack 40 ------- 1 4.1 0.0 10 29
r 0.71148 0 3 tcp 1040 ------- 1 0.0 4.1 18 28
+ 0.71148 3 4 tcp 1040 ------- 1 0.0 4.1 18 28
r 0.712027 3 0 ack 40 ------- 1 4.1 0.0 9 26
+ 0.712027 0 3 tcp 1040 ------- 1 0.0 4.1 19 30
- 0.712027 0 3 tcp 1040 ------- 1 0.0 4.1 19 30
+ 0.712027 0 3 tcp 1040 ------- 1 0.0 4.1 20 31
- 0.714067 3 4 tcp 1040 ------- 1 0.0 4.1 12 19
- 0.716187 0 3 tcp 1040 ------- 1 0.0 4.1 20 31
r 0.720733 4 3 ack 40 ------- 1 4.1 0.0 10 29
+ 0.720733 3 0 ack 40 ------- 1 4.1 0.0 10 29
- 0.720733 3 0 ack 40 ------- 1 4.1 0.0 10 29
r 0.721187 0 3 tcp 1040 ------- 1 0.0 4.1 19 30
+ 0.721187 3 4 tcp 1040 ------- 1 0.0 4.1 19 30
r 0.724067 3 4 tcp 1040 ------- 1 0.0 4.1 11 18
+ 0.724067 4 3 ack 40 ------- 1 4.1 0.0 11 32
- 0.724067 4 3 ack 40 ------- 1 4.1 0.0 11 32
r 0.725347 0 3 tcp 1040 ------- 1 0.0 4.1 20 31
+ 0.725347 3 4 tcp 1040 ------- 1 0.0 4.1 20 31
r 0.725893 3 0 ack 40 ------- 1 4.1 0.0 10 29
+ 0.725893 0 3 tcp 1040 ------- 1 0.0 4.1 21 33
- 0.725893 0 3 tcp 1040 ------- 1 0.0 4.1 21 33
+ 0.725893 0 3 tcp 1040 ------- 1 0.0 4.1 22 34
- 0.727933 3 4 tcp 1040 ------- 1 0.0 4.1 13 21
- 0.730053 0 3 tcp 1040 ------- 1 0.0 4.1 22 34
r 0.7346 4 3 ack 40 ------- 1 4.1 0.0 11 32
+ 0.7346 3 0 ack 40 ------- 1 4.1 0.0 11 32
- 0.7346 3 0 ack 40 ------- 1 4.1 0.0 11 32
r 0.735053 0 3 tcp 1040 ------- 1 0.0 4.1 21 33
+ 0.735053 3 4 tcp 1040 ------- 1 0.0 4.1 21 33
r 0.737933 3 4 tcp 1040 ------- 1 0.0 4.1 12 19
+ 0.737933 4 3 ack 40 ------- 1 4.1 0.0 12 35
- 0.737933 4 3 ack 40 ------- 1 4.1 0.0 12 35
r 0.739213 0 3 tcp 1040 ------- 1 0.0 4.1 22 34
+ 0.739213 3 4 tcp 1040 ------- 1 0.0 4.1 22 34
r 0.73976 3 0 ack 40 ------- 1 4.1 0.0 11 32
+ 0.73976 0 3 tcp 1040 ------- 1 0.0 4.1 23 36
- 0.73976 0 3 tcp 1040 ------- 1 0.0 4.1 23 36
+ 0.73976 0 3 tcp 1040 ------- 1 0.0 4.1 24 37
- 0.7418 3 4 tcp 1040 ------- 1 0.0 4.1 14 22
- 0.74392 0 3 tcp 1040 ------- 1 0.0 4.1 24 37
r 0.748467 4 3 ack 40 ------- 1 4.1 0.0 12 35
+ 0.748467 3 0 ack 40 ------- 1 4.1 0.0 12 35
- 0.748467 3 0 ack 40 ------- 1 4.1 0.0 12 35
r 0.74892 0 3 tcp 1040 ------- 1 0.0 4.1 23 36
+ 0.74892 3 4 tcp 1040 ------- 1 0.0 4.1 23 36
r 0.7518 3 4 tcp 1040 ------- 1 0.0 4.1 13 21
+ 0.7518 4 3 ack 40 ------- 1 4.1 0.0 13 38
- 0.7518 4 3 ack 40 ------- 1 4.1 0.0 13 38
r 0.75308 0 3 tcp 1040 ------- 1 0.0 4.1 24 37
+ 0.75308 3 4 tcp 1040 ------- 1 0.0 4.1 24 37
d 0.75308 3 4 tcp 1040 ------- 1 0.0 4.1 24 37
r 0.753627 3 0 ack 40 ------- 1 4.1 0.0 12 35
+ 0.753627 0 3 tcp 1040 ------- 1 0.0 4.1 25 39
- 0.753627 0 3 tcp 1040 ------- 1 0.0 4.1 25 39
+ 0.753627 0 3 tcp 1040 ------- 1 0.0 4.1 26 40
- 0.755667 3 4 tcp 1040 ------- 1 0.0 4.1 15 24
- 0.757787 0 3 tcp 1040 ------- 1 0.0 4.1 26 40
r 0.762333 4 3 ack 40 ------- 1 4.1 0.0 13 38
+ 0.762333 3 0 ack 40 ------- 1 4.1 0.0 13 38
- 0.762333 3 0 ack 40 ------- 1 4.1 0.0 13 38
r 0.762787 0 3 tcp 1040 ------- 1 0.0 4.1 25 39
+ 0.762787 3 4 tcp 1040 ------- 1 0.0 4.1 25 39
r 0.765667 3 4 tcp 1040 ------- 1 0.0 4.1 14 22
+ 0.765667 4 3 ack 40 ------- 1 4.1 0.0 14 41
- 0.765667 4 3 ack 40 ------- 1 4.1 0.0 14 41
r 0.766947 0 3 tcp 1040 ------- 1 0.0 4.1 26 40
+ 0.766947 3 4 tcp 1040 ------- 1 0.0 4.1 26 40
d 0.766947 3 4 tcp 1040 ------- 1 0.0 4.1 26 40
r 0.767493 3 0 ack 40 ------- 1 4.1 0.0 13 38
+ 0.767493 0 3 tcp 1040 ------- 1 0.0 4.1 27 42
- 0.767493 0 3 tcp 1040 ------- 1 0.0 4.1 27 42
+ 0.767493 0 3 tcp 1040 ------- 1 0.0 4.1 28 43
- 0.769533 3 4 tcp 1040 ------- 1 0.0 4.1 16 25
- 0.771653 0 3 tcp 1040 ------- 1 0.0 4.1 28 43
r 0.7762 4 3 ack 40 ------- 1 4.1 0.0 14 41
+ 0.7762 3 0 ack 40 ------- 1 4.1 0.0 14 41
- 0.7762 3 0 ack 40 ------- 1 4.1 0.0 14 41
r 0.776653 0 3 tcp 1040 ------- 1 0.0 4.1 27 42
+ 0.776653 3 4 tcp 1040 ------- 1 0.0 4.1 27 42
r 0.779533 3 4 tcp 1040 ------- 1 0.0 4.1 15 24
+ 0.779533 4 3 ack 40 ------- 1 4.1 0.0 15 44
- 0.779533 4 3 ack 40 ------- 1 4.1 0.0 15 44
r 0.780813 0 3 tcp 1040 ------- 1 0.0 4.1 28 43
+ 0.780813 3 4 tcp 1040 ------- 1 0.0 4.1 28 43
d 0.780813 3 4 tcp 1040 ------- 1 0.0 4.1 28 43
r 0.78136 3 0 ack 40 ------- 1 4.1 0.0 14 41
+ 0.78136 0 3 tcp 1040 ------- 1 0.0 4.1 29 45
- 0.78136 0 3 tcp 1040 ------- 1 0.0 4.1 29 45
+ 0.78136 0 3 tcp 1040 ------- 1 0.0 4.1 30 46
- 0.7834 3 4 tcp 1040 ------- 1 0.0 4.1 17 27
- 0.78552 0 3 tcp 1040 ------- 1 0.0 4.1 30 46
r 0.790067 4 3 ack 40 ------- 1 4.1 0.0 15 44
+ 0.790067 3 0 ack 40 ------- 1 4.1 0.0 15 44
- 0.790067 3 0 ack 40 ------- 1 4.1 0.0 15 44
r 0.79052 0 3 tcp 1040 ------- 1 0.0 4.1 29 45
+ 0.79052 3 4 tcp 1040 ------- 1 0.0 4.1 29 45
r 0.7934 3 4 tcp 1040 ------- 1 0.0 4.1 16 25
+ 0.7934 4 3 ack 40 ------- 1 4.1 0.0 16 47
- 0.7934 4 3 ack 40 ------- 1 4.1 0.0 16 47
r 0.79468 0 3 tcp 1040 ------- 1 0.0 4.1 30 46
+ 0.79468 3 4 tcp 1040 ------- 1 0.0 4.1 30 46
d 0.79468 3 4 tcp 1040 ------- 1 0.0 4.1 30 46
r 0.795227 3 0 ack 40 ------- 1 4.1 0.0 15 44
+ 0.795227 0 3 tcp 1040 ------- 1 0.0 4.1 31 48
- 0.795227 0 3 tcp 1040 ------- 1 0.0 4.1 31 48
+ 0.795227 0 3 tcp 1040 ------- 1 0.0 4.1 32 49
- 0.797267 3 4 tcp 1040 ------- 1 0.0 4.1 18 28
- 0.799387 0 3 tcp 1040 ------- 1 0.0 4.1 32 49
r 0.803933 4 3 ack 40 ------- 1 4.1 0.0 16 47
+ 0.803933 3 0 ack 40 ------- 1 4.1 0.0 16 47
- 0.803933 3 0 ack 40 ------- 1 4.1 0.0 16 47
r 0.804387 0 3 tcp 1040 ------- 1 0.0 4.1 31 48
+ 0.804387 3 4 tcp 1040 ------- 1 0.0 4.1 31 48
r 0.807267 3 4 tcp 1040 ------- 1 0.0 4.1 17 27
+ 0.807267 4 3 ack 40 ------- 1 4.1 0.0 17 50
- 0.807267 4 3 ack 40 ------- 1 4.1 0.0 17 50
r 0.808547 0 3 tcp 1040 ------- 1 0.0 4.1 32 49
+ 0.808547 3 4 tcp 1040 ------- 1 0.0 4.1 32 49
d 0.808547 3 4 tcp 1040 ------- 1 0.0 4.1 32 49
r 0.809093 3 0 ack 40 ------- 1 4.1 0.0 16 47
+ 0.809093 0 3 tcp 1040 ------- 1 0.0 4.1 33 51
- 0.809093 0 3 tcp 1040 ------- 1 0.0 4.1 33 51
+ 0.809093 0 3 tcp 1040 ------- 1 0.0 4.1 34 52
- 0.811133 3 4 tcp 1040 ------- 1 0.0 4.1 19 30
- 0.813253 0 3 tcp 1040 ------- 1 0.0 4.1 34 52
r 0.8178 4 3 ack 40 ------- 1 4.1 0.0 17 50
+ 0.8178 3 0 ack 40 ------- 1 4.1 0.0 17 50
- 0.8178 3 0 ack 40 ------- 1 4.1 0.0 17 50
r 0.818253 0 3 tcp 1040 ------- 1 0.0 4.1 33 51
+ 0.818253 3 4 tcp 1040 ------- 1 0.0 4.1 33 51
r 0.821133 3 4 tcp 1040 ------- 1 0.0 4.1 18 28
+ 0.821133 4 3 ack 40 ------- 1 4.1 0.0 18 53
- 0.821133 4 3 ack 40 ------- 1 4.1 0.0 18 53
r 0.822413 0 3 tcp 1040 ------- 1 0.0 4.1 34 52
+ 0.822413 3 4 tcp 1040 ------- 1 0.0 4.1 34 52
d 0.822413 3 4 tcp 1040 ------- 1 0.0 4.1 34 52
r 0.82296 3 0 ack 40 ------- 1 4.1 0.0 17 50
+ 0.82296 0 3 tcp 1040 ------- 1 0.0 4.1 35 54
- 0.82296 0 3 tcp 1040 ------- 1 0.0 4.1 35 54
+ 0.82296 0 3 tcp 1040 ------- 1 0.0 4.1 36 55
- 0.825 3 4 tcp 1040 ------- 1 0.0 4.1 20 31
- 0.82712 0 3 tcp 1040 ------- 1 0.0 4.1 36 55
r 0.831667 4 3 ack 40 ------- 1 4.1 0.0 18 53
+ 0.831667 3 0 ack 40 ------- 1 4.1 0.0 18 53
- 0.831667 3 0 ack 40 ------- 1 4.1 0.0 18 53
r 0.83212 0 3 tcp 1040 ------- 1 0.0 4.1 35 54
+ 0.83212 3 4 tcp 1040 ------- 1 0.0 4.1 35 54
r 0.835 3 4 tcp 1040 ------- 1 0.0 4.1 19 30
+ 0.835 4 3 ack 40 ------- 1 4.1 0.0 19 56
- 0.835 4 3 ack 40 ------- 1 4.1 0.0 19 56
r 0.83628 0 3 tcp 1040 ------- 1 0.0 4.1 36 55
+ 0.83628 3 4 tcp 1040 ------- 1 0.0 4.1 36 55
d 0.83628 3 4 tcp 1040 ------- 1 0.0 4.1 36 55
r 0.836827 3 0 ack 40 ------- 1 4.1 0.0 18 53
+ 0.836827 0 3 tcp 1040 ------- 1 0.0 4.1 37 57
- 0.836827 0 3 tcp 1040 ------- 1 0.0 4.1 37 57
+ 0.836827 0 3 tcp 1040 ------- 1 0.0 4.1 38 58
- 0.838867 3 4 tcp 1040 ------- 1 0.0 4.1 21 33
- 0.840987 0 3 tcp 1040 ------- 1 0.0 4.1 38 58
r 0.845533 4 3 ack 40 ------- 1 4.1 0.0 19 56
+ 0.845533 3 0 ack 40 ------- 1 4.1 0.0 19 56
- 0.845533 3 0 ack 40 ------- 1 4.1 0.0 19 56
r 0.845987 0 3 tcp 1040 ------- 1 0.0 4.1 37 57
+ 0.845987 3 4 tcp 1040 ------- 1 0.0 4.1 37 57
r 0.848867 3 4 tcp 1040 ------- 1 0.0 4.1 20 31
+ 0.848867 4 3 ack 40 ------- 1 4.1 0.0 20 59
- 0.848867 4 3 ack 40 ------- 1 4.1 0.0 20 59
r 0.850147 0 3 tcp 1040 ------- 1 0.0 4.1 38 58
+ 0.850147 3 4 tcp 1040 ------- 1 0.0 4.1 38 58
d 0.850147 3 4 tcp 1040 ------- 1 0.0 4.1 38 58
r 0.850693 3 0 ack 40 ------- 1 4.1 0.0 19 56
+ 0.850693 0 3 tcp 1040 ------- 1 0.0 4.1 39 60
- 0.850693 0 3 tcp 1040 ------- 1 0.0 4.1 39 60
- 0.852733 3 4 tcp 1040 ------- 1 0.0 4.1 22 34
r 0.8594 4 3 ack 40 ------- 1 4.1 0.0 20 59
+ 0.8594 3 0 ack 40 ------- 1 4.1 0.0 20 59
- 0.8594 3 0 ack 40 ------- 1 4.1 0.0 20 59
r 0.859853 0 3 tcp 1040 ------- 1 0.0 4.1 39 60
+ 0.859853 3 4 tcp 1040 ------- 1 0.0 4.1 39 60
r 0.862733 3 4 tcp 1040 ------- 1 0.0 4.1 21 33
+ 0.862733 4 3 ack 40 ------- 1 4.1 0.0 21 61
- 0.862733 4 3 ack 40 ------- 1 4.1 0.0 21 61
r 0.86456 3 0 ack 40 ------- 1 4.1 0.0 20 59
+ 0.86456 0 3 tcp 1040 ------- 1 0.0 4.1 40 62
- 0.86456 0 3 tcp 1040 ------- 1 0.0 4.1 40 62
- 0.8666 3 4 tcp 1040 ------- 1 0.0 4.1 23 36
r 0.873267 4 3 ack 40 ------- 1 4.1 0.0 21 61
+ 0.873267 3 0 ack 40 ------- 1 4.1 0.0 21 61
- 0.873267 3 0 ack 40 ------- 1 4.1 0.0 21 61
r 0.87372 0 3 tcp 1040 ------- 1 0.0 4.1 40 62
+ 0.87372 3 4 tcp 1040 ------- 1 0.0 4.1 40 62
r 0.8766 3 4 tcp 1040 ------- 1 0.0 4.1 22 34
+ 0.8766 4 3 ack 40 ------- 1 4.1 0.0 22 63
- 0.8766 4 3 ack 40 ------- 1 4.1 0.0 22 63
r 0.878427 3 0 ack 40 ------- 1 4.1 0.0 21 61
+ 0.878427 0 3 tcp 1040 ------- 1 0.0 4.1 41 64
- 0.878427 0 3 tcp 1040 ------- 1 0.0 4.1 41 64
- 0.880467 3 4 tcp 1040 ------- 1 0.0 4.1 25 39
r 0.887133 4 3 ack 40 ------- 1 4.1 0.0 22 63
+ 0.887133 3 0 ack 40 ------- 1 4.1 0.0 22 63
- 0.887133 3 0 ack 40 ------- 1 4.1 0.0 22 63
r 0.887587 0 3 tcp 1040 ------- 1 0.0 4.1 41 64
+ 0.887587 3 4 tcp 1040 ------- 1 0.0 4.1 41 64
r 0.890467 3 4 tcp 1040 ------- 1 0.0 4.1 23 36
+ 0.890467 4 3 ack 40 ------- 1 4.1 0.0 23 65
- 0.890467 4 3 ack 40 ------- 1 4.1 0.0 23 65
r 0.892293 3 0 ack 40 ------- 1 4.1 0.0 22 63
+ 0.892293 0 3 tcp 1040 ------- 1 0.0 4.1 42 66
- 0.892293 0 3 tcp 1040 ------- 1 0.0 4.1 42 66
- 0.894333 3 4 tcp 1040 ------- 1 0.0 4.1 27 42
r 0.901 4 3 ack 40 ------- 1 4.1 0.0 23 65
+ 0.901 3 0 ack 40 ------- 1 4.1 0.0 23 65
- 0.901 3 0 ack 40 ------- 1 4.1 0.0 23 65
r 0.901453 0 3 tcp 1040 ------- 1 0.0 4.1 42 66
+ 0.901453 3 4 tcp 1040 ------- 1 0.0 4.1 42 66
r 0.904333 3 4 tcp 1040 ------- 1 0.0 4.1 25 39
+ 0.904333 4 3 ack 40 ------- 1 4.1 0.0 23 67
- 0.904333 4 3 ack 40 ------- 1 4.1 0.0 23 67
r 0.90616 3 0 ack 40 ------- 1 4.1 0.0 23 65
+ 0.90616 0 3 tcp 1040 ------- 1 0.0 4.1 43 68
- 0.90616 0 3 tcp 1040 ------- 1 0.0 4.1 43 68
- 0.9082 3 4 tcp 1040 ------- 1 0.0 4.1 29 45
r 0.914867 4 3 ack 40 ------- 1 4.1 0.0 23 67
+ 0.914867 3 0 ack 40 ------- 1 4.1 0.0 23 67
- 0.914867 3 0 ack 40 ------- 1 4.1 0.0 23 67
r 0.91532 0 3 tcp 1040 ------- 1 0.0 4.1 43 68
+ 0.91532 3 4 tcp 1040 ------- 1 0.0 4.1 43 68
r 0.9182 3 4 tcp 1040 ------- 1 0.0 4.1 27 42
+ 0.9182 4 3 ack 40 ------- 1 4.1 0.0 23 69
- 0.9182 4 3 ack 40 ------- 1 4.1 0.0 23 69
r 0.920027 3 0 ack 40 ------- 1 4.1 0.0 23 67
- 0.922067 3 4 tcp 1040 ------- 1 0.0 4.1 31 48
r 0.928733 4 3 ack 40 ------- 1 4.1 0.0 23 69
+ 0.928733 3 0 ack 40 ------- 1 4.1 0.0 23 69
- 0.928733 3 0 ack 40 ------- 1 4.1 0.0 23 69
r 0.932067 3 4 tcp 1040 ------- 1 0.0 4.1 29 45
+ 0.932067 4 3 ack 40 ------- 1 4.1 0.0 23 70
- 0.932067 4 3 ack 40 ------- 1 4.1 0.0 23 70
r 0.933893 3 0 ack 40 ------- 1 4.1 0.0 23 69
- 0.935933 3 4 tcp 1040 ------- 1 0.0 4.1 33 51
r 0.9426 4 3 ack 40 ------- 1 4.1 0.0 23 70
+ 0.9426 3 0 ack 40 ------- 1 4.1 0.0 23 70
- 0.9426 3 0 ack 40 ------- 1 4.1 0.0 23 70
r 0.945933 3 4 tcp 1040 ------- 1 0.0 4.1 31 48
+ 0.945933 4 3 ack 40 ------- 1 4.1 0.0 23 71
- 0.945933 4 3 ack 40 ------- 1 4.1 0.0 23 71
r 0.94776 3 0 ack 40 ------- 1 4.1 0.0 23 70
+ 0.94776 0 3 tcp 1040 ---A--- 1 0.0 4.1 24 72
- 0.94776 0 3 tcp 1040 ---A--- 1 0.0 4.1 24 72
- 0.9498 3 4 tcp 1040 ------- 1 0.0 4.1 35 54
r 0.956467 4 3 ack 40 ------- 1 4.1 0.0 23 71
+ 0.956467 3 0 ack 40 ------- 1 4.1 0.0 23 71
- 0.956467 3 0 ack 40 ------- 1 4.1 0.0 23 71
r 0.95692 0 3 tcp 1040 ---A--- 1 0.0 4.1 24 72
+ 0.95692 3 4 tcp 1040 ---A--- 1 0.0 4.1 24 72
r 0.9598 3 4 tcp 1040 ------- 1 0.0 4.1 33 51
+ 0.9598 4 3 ack 40 ------- 1 4.1 0.0 23 73
- 0.9598 4 3 ack 40 ------- 1 4.1 0.0 23 73
r 0.961627 3 0 ack 40 ------- 1 4.1 0.0 23 71
- 0.963667 3 4 tcp 1040 ------- 1 0.0 4.1 37 57
r 0.970333 4 3 ack 40 ------- 1 4.1 0.0 23 73
+ 0.970333 3 0 ack 40 ------- 1 4.1 0.0 23 73
- 0.970333 3 0 ack 40 ------- 1 4.1 0.0 23 73
r 0.973667 3 4 tcp 1040 ------- 1 0.0 4.1 35 54
+ 0.973667 4 3 ack 40 ------- 1 4.1 0.0 23 74
- 0.973667 4 3 ack 40 ------- 1 4.1 0.0 23 74
r 0.975493 3 0 ack 40 ------- 1 4.1 0.0 23 73
- 0.977533 3 4 tcp 1040 ------- 1 0.0 4.1 39 60
r 0.9842 4 3 ack 40 ------- 1 4.1 0.0 23 74
+ 0.9842 3 0 ack 40 ------- 1 4.1 0.0 23 74
- 0.9842 3 0 ack 40 ------- 1 4.1 0.0 23 74
r 0.987533 3 4 tcp 1040 ------- 1 0.0 4.1 37 57
+ 0.987533 4 3 ack 40 ------- 1 4.1 0.0 23 75
- 0.987533 4 3 ack 40 ------- 1 4.1 0.0 23 75
r 0.98936 3 0 ack 40 ------- 1 4.1 0.0 23 74
- 0.9914 3 4 tcp 1040 ------- 1 0.0 4.1 40 62
r 0.998067 4 3 ack 40 ------- 1 4.1 0.0 23 75
+ 0.998067 3 0 ack 40 ------- 1 4.1 0.0 23 75
- 0.998067 3 0 ack 40 ------- 1 4.1 0.0 23 75
+ 1 1 3 cbr 200 ------- 2 1.0 4.0 0 76
- 1 1 3 cbr 200 ------- 2 1.0 4.0 0 76
r 1.0014 3 4 tcp 1040 ------- 1 0.0 4.1 39 60
+ 1.0014 4 3 ack 40 ------- 1 4.1 0.0 23 77
- 1.0014 4 3 ack 40 ------- 1 4.1 0.0 23 77
r 1.003227 3 0 ack 40 ------- 1 4.1 0.0 23 75
- 1.005267 3 4 tcp 1040 ------- 1 0.0 4.1 41 64
r 1.0058 1 3 cbr 200 ------- 2 1.0 4.0 0 76
+ 1.0058 3 4 cbr 200 ------- 2 1.0 4.0 0 76
r 1.011933 4 3 ack 40 ------- 1 4.1 0.0 23 77
+ 1.011933 3 0 ack 40 ------- 1 4.1 0.0 23 77
- 1.011933 3 0 ack 40 ------- 1 4.1 0.0 23 77
r 1.015267 3 4 tcp 1040 ------- 1 0.0 4.1 40 62
+ 1.015267 4 3 ack 40 ------- 1 4.1 0.0 23 78
- 1.015267 4 3 ack 40 ------- 1 4.1 0.0 23 78
r 1.017093 3 0 ack 40 ------- 1 4.1 0.0 23 77
- 1.019133 3 4 tcp 1040 ------- 1 0.0 4.1 42 66
r 1.0258 4 3 ack 40 ------- 1 4.1 0.0 23 78
+ 1.0258 3 0 ack 40 ------- 1 4.1 0.0 23 78
- 1.0258 3 0 ack 40 ------- 1 4.1 0.0 23 78
r 1.029133 3 4 tcp 1040 ------- 1 0.0 4.1 41 64
+ 1.029133 4 3 ack 40 ------- 1 4.1 0.0 23 79
- 1.029133 4 3 ack 40 ------- 1 4.1 0.0 23 79
r 1.03096 3 0 ack 40 ------- 1 4.1 0.0 23 78
- 1.033 3 4 tcp 1040 ------- 1 0.0 4.1 43 68
r 1.039667 4 3 ack 40 ------- 1 4.1 0.0 23 79
+ 1.039667 3 0 ack 40 ------- 1 4.1 0.0 23 79
- 1.039667 3 0 ack 40 ------- 1 4.1 0.0 23 79
r 1.043 3 4 tcp 1040 ------- 1 0.0 4.1 42 66
+ 1.043 4 3 ack 40 ------- 1 4.1 0.0 23 80
- 1.043 4 3 ack 40 ------- 1 4.1 0.0 23 80
r 1.044827 3 0 ack 40 ------- 1 4.1 0.0 23 79
- 1.046867 3 4 tcp 1040 ---A--- 1 0.0 4.1 24 72
r 1.053533 4 3 ack 40 ------- 1 4.1 0.0 23 80
+ 1.053533 3 0 ack 40 ------- 1 4.1 0.0 23 80
- 1.053533 3 0 ack 40 ------- 1 4.1 0.0 23 80
r 1.056867 3 4 tcp 1040 ------- 1 0.0 4.1 43 68
+ 1.056867 4 3 ack 40 ------- 1 4.1 0.0 23 81
- 1.056867 4 3 ack 40 ------- 1 4.1 0.0 23 81
r 1.058693 3 0 ack 40 ------- 1 4.1 0.0 23 80
- 1.060733 3 4 cbr 200 ------- 2 1.0 4.0 0 76
r 1.0674 4 3 ack 40 ------- 1 4.1 0.0 23 81
+ 1.0674 3 0 ack 40 ------- 1 4.1 0.0 23 81
- 1.0674 3 0 ack 40 ------- 1 4.1 0.0 23 81
r 1.070733 3 4 tcp 1040 ---A--- 1 0.0 4.1 24 72
+ 1.070733 4 3 ack 40 ------- 1 4.1 0.0 25 82
- 1.070733 4 3 ack 40 ------- 1 4.1 0.0 25 82
r 1.07256 3 0 ack 40 ------- 1 4.1 0.0 23 81
r 1.0734 3 4 cbr 200 ------- 2 1.0 4.0 0 76
r 1.081267 4 3 ack 40 ------- 1 4.1 0.0 25 82
+ 1.081267 3 0 ack 40 ------- 1 4.1 0.0 25 82
- 1.081267 3 0 ack 40 ------- 1 4.1 0.0 25 82
r 1.086427 3 0 ack 40 ------- 1 4.1 0.0 25 82
+ 1.086427 0 3 tcp 1040 ------- 1 0.0 4.1 26 83
- 1.086427 0 3 tcp 1040 ------- 1 0.0 4.1 26 83
+ 1.086427 0 3 tcp 1040 ------- 1 0.0 4.1 27 84
- 1.090587 0 3 tcp 1040 ------- 1 0.0 4.1 27 84
r 1.095587 0 3 tcp 1040 ------- 1 0.0 4.1 26 83
+ 1.095587 3 4 tcp 1040 ------- 1 0.0 4.1 26 83
- 1.095587 3 4 tcp 1040 ------- 1 0.0 4.1 26 83
r 1.099747 0 3 tcp 1040 ------- 1 0.0 4.1 27 84
+ 1.099747 3 4 tcp 1040 ------- 1 0.0 4.1 27 84
- 1.109453 3 4 tcp 1040 ------- 1 0.0 4.1 27 84
r 1.119453 3 4 tcp 1040 ------- 1 0.0 4.1 26 83
+ 1.119453 4 3 ack 40 ------- 1 4.1 0.0 27 85
- 1.119453 4 3 ack 40 ------- 1 4.1 0.0 27 85
r 1.129987 4 3 ack 40 ------- 1 4.1 0.0 27 85
+ 1.129987 3 0 ack 40 ------- 1 4.1 0.0 27 85
- 1.129987 3 0 ack 40 ------- 1 4.1 0.0 27 85
r 1.13332 3 4 tcp 1040 ------- 1 0.0 4.1 27 84
+ 1.13332 4 3 ack 40 ------- 1 4.1 0.0 27 86
- 1.13332 4 3 ack 40 ------- 1 4.1 0.0 27 86
r 1.135147 3 0 ack 40 ------- 1 4.1 0.0 27 85
+ 1.135147 0 3 tcp 1040 ------- 1 0.0 4.1 28 87
- 1.135147 0 3 tcp 1040 ------- 1 0.0 4.1 28 87
+ 1.135147 0 3 tcp 1040 ------- 1 0.0 4.1 29 88
+ 1.135147 0 3 tcp 1040 ------- 1 0.0 4.1 30 89
- 1.139307 0 3 tcp 1040 ------- 1 0.0 4.1 29 88
- 1.143467 0 3 tcp 1040 ------- 1 0.0 4.1 30 89
r 1.143853 4 3 ack 40 ------- 1 4.1 0.0 27 86
+ 1.143853 3 0 ack 40 ------- 1 4.1 0.0 27 86
- 1.143853 3 0 ack 40 ------- 1 4.1 0.0 27 86
r 1.144307 0 3 tcp 1040 ------- 1 0.0 4.1 28 87
+ 1.144307 3 4 tcp 1040 ------- 1 0.0 4.1 28 87
- 1.144307 3 4 tcp 1040 ------- 1 0.0 4.1 28 87
r 1.148467 0 3 tcp 1040 ------- 1 0.0 4.1 29 88
+ 1.148467 3 4 tcp 1040 ------- 1 0.0 4.1 29 88
r 1.149013 3 0 ack 40 ------- 1 4.1 0.0 27 86
+ 1.149013 0 3 tcp 1040 ------- 1 0.0 4.1 31 90
- 1.149013 0 3 tcp 1040 ------- 1 0.0 4.1 31 90
r 1.152627 0 3 tcp 1040 ------- 1 0.0 4.1 30 89
+ 1.152627 3 4 tcp 1040 ------- 1 0.0 4.1 30 89
- 1.158173 3 4 tcp 1040 ------- 1 0.0 4.1 29 88
r 1.158173 0 3 tcp 1040 ------- 1 0.0 4.1 31 90
+ 1.158173 3 4 tcp 1040 ------- 1 0.0 4.1 31 90
r 1.168173 3 4 tcp 1040 ------- 1 0.0 4.1 28 87
+ 1.168173 4 3 ack 40 ------- 1 4.1 0.0 29 91
- 1.168173 4 3 ack 40 ------- 1 4.1 0.0 29 91
- 1.17204 3 4 tcp 1040 ------- 1 0.0 4.1 30 89
r 1.178707 4 3 ack 40 ------- 1 4.1 0.0 29 91
+ 1.178707 3 0 ack 40 ------- 1 4.1 0.0 29 91
- 1.178707 3 0 ack 40 ------- 1 4.1 0.0 29 91
r 1.18204 3 4 tcp 1040 ------- 1 0.0 4.1 29 88
+ 1.18204 4 3 ack 40 ------- 1 4.1 0.0 29 92
- 1.18204 4 3 ack 40 ------- 1 4.1 0.0 29 92
r 1.183867 3 0 ack 40 ------- 1 4.1 0.0 29 91
+ 1.183867 0 3 tcp 1040 ------- 1 0.0 4.1 32 93
- 1.183867 0 3 tcp 1040 ------- 1 0.0 4.1 32 93
+ 1.183867 0 3 tcp 1040 ------- 1 0.0 4.1 33 94
- 1.185907 3 4 tcp 1040 ------- 1 0.0 4.1 31 90
- 1.188027 0 3 tcp 1040 ------- 1 0.0 4.1 33 94
r 1.192573 4 3 ack 40 ------- 1 4.1 0.0 29 92
+ 1.192573 3 0 ack 40 ------- 1 4.1 0.0 29 92
- 1.192573 3 0 ack 40 ------- 1 4.1 0.0 29 92
r 1.193027 0 3 tcp 1040 ------- 1 0.0 4.1 32 93
+ 1.193027 3 4 tcp 1040 ------- 1 0.0 4.1 32 93
r 1.195907 3 4 tcp 1040 ------- 1 0.0 4.1 30 89
+ 1.195907 4 3 ack 40 ------- 1 4.1 0.0 31 95
- 1.195907 4 3 ack 40 ------- 1 4.1 0.0 31 95
r 1.197187 0 3 tcp 1040 ------- 1 0.0 4.1 33 94
+ 1.197187 3 4 tcp 1040 ------- 1 0.0 4.1 33 94
r 1.197733 3 0 ack 40 ------- 1 4.1 0.0 29 92
+ 1.197733 0 3 tcp 1040 ------- 1 0.0 4.1 34 96
- 1.197733 0 3 tcp 1040 ------- 1 0.0 4.1 34 96
- 1.199773 3 4 tcp 1040 ------- 1 0.0 4.1 32 93
r 1.20644 4 3 ack 40 ------- 1 4.1 0.0 31 95
+ 1.20644 3 0 ack 40 ------- 1 4.1 0.0 31 95
- 1.20644 3 0 ack 40 ------- 1 4.1 0.0 31 95
r 1.206893 0 3 tcp 1040 ------- 1 0.0 4.1 34 96
+ 1.206893 3 4 tcp 1040 ------- 1 0.0 4.1 34 96
r 1.209773 3 4 tcp 1040 ------- 1 0.0 4.1 31 90
+ 1.209773 4 3 ack 40 ------- 1 4.1 0.0 31 97
- 1.209773 4 3 ack 40 ------- 1 4.1 0.0 31 97
r 1.2116 3 0 ack 40 ------- 1 4.1 0.0 31 95
+ 1.2116 0 3 tcp 1040 ------- 1 0.0 4.1 35 98
- 1.2116 0 3 tcp 1040 ------- 1 0.0 4.1 35 98
+ 1.2116 0 3 tcp 1040 ------- 1 0.0 4.1 36 99
- 1.21364 3 4 tcp 1040 ------- 1 0.0 4.1 33 94
- 1.21576 0 3 tcp 1040 ------- 1 0.0 4.1 36 99
r 1.220307 4 3 ack 40 ------- 1 4.1 0.0 31 97
+ 1.220307 3 0 ack 40 ------- 1 4.1 0.0 31 97
- 1.220307 3 0 ack 40 ------- 1 4.1 0.0 31 97
r 1.22076 0 3 tcp 1040 ------- 1 0.0 4.1 35 98
+ 1.22076 3 4 tcp 1040 ------- 1 0.0 4.1 35 98
r 1.22364 3 4 tcp 1040 ------- 1 0.0 4.1 32 93
+ 1.22364 4 3 ack 40 ------- 1 4.1 0.0 33 100
- 1.22364 4 3 ack 40 ------- 1 4.1 0.0 33 100
r 1.22492 0 3 tcp 1040 ------- 1 0.0 4.1 36 99
+ 1.22492 3 4 tcp 1040 ------- 1 0.0 4.1 36 99
r 1.225467 3 0 ack 40 ------- 1 4.1 0.0 31 97
+ 1.225467 0 3 tcp 1040 ------- 1 0.0 4.1 37 101
- 1.225467 0 3 tcp 1040 ------- 1 0.0 4.1 37 101
- 1.227507 3 4 tcp 1040 ------- 1 0.0 4.1 34 96
r 1.234173 4 3 ack 40 ------- 1 4.1 0.0 33 100
+ 1.234173 3 0 ack 40 ------- 1 4.1 0.0 33 100
- 1.234173 3 0 ack 40 ------- 1 4.1 0.0 33 100
r 1.234627 0 3 tcp 1040 ------- 1 0.0 4.1 37 101
+ 1.234627 3 4 tcp 1040 ------- 1 0.0 4.1 37 101
r 1.237507 3 4 tcp 1040 ------- 1 0.0 4.1 33 94
+ 1.237507 4 3 ack 40 ------- 1 4.1 0.0 33 102
- 1.237507 4 3 ack 40 ------- 1 4.1 0.0 33 102
r 1.239333 3 0 ack 40 ------- 1 4.1 0.0 33 100
+ 1.239333 0 3 tcp 1040 ------- 1 0.0 4.1 38 103
- 1.239333 0 3 tcp 1040 ------- 1 0.0 4.1 38 103
+ 1.239333 0 3 tcp 1040 ------- 1 0.0 4.1 39 104
- 1.241373 3 4 tcp 1040 ------- 1 0.0 4.1 35 98
- 1.243493 0 3 tcp 1040 ------- 1 0.0 4.1 39 104
r 1.24804 4 3 ack 40 ------- 1 4.1 0.0 33 102
+ 1.24804 3 0 ack 40 ------- 1 4.1 0.0 33 102
- 1.24804 3 0 ack 40 ------- 1 4.1 0.0 33 102
r 1.248493 0 3 tcp 1040 ------- 1 0.0 4.1 38 103
+ 1.248493 3 4 tcp 1040 ------- 1 0.0 4.1 38 103
r 1.251373 3 4 tcp 1040 ------- 1 0.0 4.1 34 96
+ 1.251373 4 3 ack 40 ------- 1 4.1 0.0 35 105
- 1.251373 4 3 ack 40 ------- 1 4.1 0.0 35 105
r 1.252653 0 3 tcp 1040 ------- 1 0.0 4.1 39 104
+ 1.252653 3 4 tcp 1040 ------- 1 0.0 4.1 39 104
r 1.2532 3 0 ack 40 ------- 1 4.1 0.0 33 102
+ 1.2532 0 3 tcp 1040 ------- 1 0.0 4.1 40 106
- 1.2532 0 3 tcp 1040 ------- 1 0.0 4.1 40 106
- 1.25524 3 4 tcp 1040 ------- 1 0.0 4.1 36 99
r 1.261907 4 3 ack 40 ------- 1 4.1 0.0 35 105
+ 1.261907 3 0 ack 40 ------- 1 4.1 0.0 35 105
- 1.261907 3 0 ack 40 ------- 1 4.1 0.0 35 105
r 1.26236 0 3 tcp 1040 ------- 1 0.0 4.1 40 106
+ 1.26236 3 4 tcp 1040 ------- 1 0.0 4.1 40 106
r 1.26524 3 4 tcp 1040 ------- 1 0.0 4.1 35 98
+ 1.26524 4 3 ack 40 ------- 1 4.1 0.0 35 107
- 1.26524 4 3 ack 40 ------- 1 4.1 0.0 35 107
r 1.267067 3 0 ack 40 ------- 1 4.1 0.0 35 105
+ 1.267067 0 3 tcp 1040 ------- 1 0.0 4.1 41 108
- 1.267067 0 3 tcp 1040 ------- 1 0.0 4.1 41 108
+ 1.267067 0 3 tcp 1040 ------- 1 0.0 4.1 42 109
- 1.269107 3 4 tcp 1040 ------- 1 0.0 4.1 37 101
- 1.271227 0 3 tcp 1040 ------- 1 0.0 4.1 42 109
r 1.275773 4 3 ack 40 ------- 1 4.1 0.0 35 107
+ 1.275773 3 0 ack 40 ------- 1 4.1 0.0 35 107
- 1.275773 3 0 ack 40 ------- 1 4.1 0.0 35 107
r 1.276227 0 3 tcp 1040 ------- 1 0.0 4.1 41 108
+ 1.276227 3 4 tcp 1040 ------- 1 0.0 4.1 41 108
r 1.279107 3 4 tcp 1040 ------- 1 0.0 4.1 36 99
+ 1.279107 4 3 ack 40 ------- 1 4.1 0.0 37 110
- 1.279107 4 3 ack 40 ------- 1 4.1 0.0 37 110
r 1.280387 0 3 tcp 1040 ------- 1 0.0 4.1 42 109
+ 1.280387 3 4 tcp 1040 ------- 1 0.0 4.1 42 109
r 1.280933 3 0 ack 40 ------- 1 4.1 0.0 35 107
+ 1.280933 0 3 tcp 1040 ------- 1 0.0 4.1 43 111
- 1.280933 0 3 tcp 1040 ------- 1 0.0 4.1 43 111
- 1.282973 3 4 tcp 1040 ------- 1 0.0 4.1 38 103